
:LABEL1: Calculations in /home/hlabolli/Projects/AV3Sb5/optimize/cs35_opt_ca_0
:LABEL2: on cg6-18.agave.rc.asu.edu at Thu Sep 23 07:07:11 MST 2021
:LABEL3: using WIEN2k_18.2 (Release 17/7/2018) in /packages/7x/wien2k/18.2-elpa-libxc/wien2k-build/
:LABEL4: using the command: run_lapw -p -ec 0.00001 -cc 0.0001 -i 100
 Flat Integration
 New Mode for Coulomb Integral
 Consistent 3/8+Simpson combinations
 Extension of core to zero
 LDM version in phi
 Fifth-order quadrature in outwin


            ---------
:ITE001:  1. ITERATION
            ---------

:NATO :    4 INDEPENDENT AND    9 TOTAL ATOMS IN UNITCELL
       SUBSTANCE: CsV3Sb5_nm_no_relaxation                                    

       LATTICE                      = H   
:POT  : POTENTIAL OPTION EX_PBE EC_PBE VX_PBE VC_PBE
:LAT  : LATTICE CONSTANTS= 10.38386 10.38386 17.59052
:VOL  : UNIT CELL VOLUME =    1642.57998
       MODE OF CALCULATION IS       = RELA
       NON-SPINPOLARIZED CALCULATION
:IFFT  : FFT-parameters:   80   80  144 Factor: 2.00
       ATOMNUMBER=  1 Cs1        VCOUL-ZERO =  0.26636E+00
:EFG001:                        EFG         =    -0.00284   *10**21  V / m**2
                               V20  TOT/SRF=    -0.00246    -0.00188
                               V22  TOT/SRF=     0.00000     0.00000
                               V22M TOT/SRF=     0.00000     0.00000
                               V21  TOT/SRF=     0.00000     0.00000
                               V21M TOT/SRF=     0.00000     0.00000

              0.00142    0.00000    0.00000        0.00142    0.00000    0.00000
              0.00000    0.00142    0.00000        0.00000    0.00142    0.00000
              0.00000    0.00000   -0.00284        0.00000    0.00000   -0.00284

         MAIN DIRECTIONS OF THE EFG   1.0000  0.0000  0.0000
                                      0.0000  1.0000  0.0000
                                      0.0000  0.0000  1.0000
:ANG001:  ANGLE WITH OLD X-AXIS =         0.0

:ETA001:                         ASYMM. ETA =     0.00000


       ATOMNUMBER=  2 V 1        VCOUL-ZERO =  0.21590E+00
:EFG002:                        EFG         =     0.12240   *10**21  V / m**2
                               V20  TOT/SRF=    -0.07717    -0.10376
                               V22  TOT/SRF=    -0.07785    -0.11145
                               V22M TOT/SRF=     0.00000     0.00000
                               V21  TOT/SRF=     0.00000     0.00000
                               V21M TOT/SRF=     0.00000     0.00000

             -0.03330    0.00000    0.00000       -0.03330    0.00000    0.00000
              0.00000    0.12240    0.00000        0.00000    0.12240    0.00000
              0.00000    0.00000   -0.08910        0.00000    0.00000   -0.08910

         MAIN DIRECTIONS OF THE EFG   1.0000  0.0000  0.0000
                                      0.0000  1.0000  0.0000
                                      0.0000  0.0000  1.0000
:ANG002:  ANGLE WITH OLD X-AXIS =         0.0

:ETA002:                         ASYMM. ETA =     0.45592


       ATOMNUMBER=  3 Sb1        VCOUL-ZERO =  0.20023E+00
:EFG003:                        EFG         =    -0.20402   *10**21  V / m**2
                               V20  TOT/SRF=    -0.17669    -0.28111
                               V22  TOT/SRF=     0.00000     0.00000
                               V22M TOT/SRF=     0.00000     0.00000
                               V21  TOT/SRF=     0.00000     0.00000
                               V21M TOT/SRF=     0.00000     0.00000

              0.10201    0.00000    0.00000        0.10201    0.00000    0.00000
              0.00000    0.10201    0.00000        0.00000    0.10201    0.00000
              0.00000    0.00000   -0.20402        0.00000    0.00000   -0.20402

         MAIN DIRECTIONS OF THE EFG   1.0000  0.0000  0.0000
                                      0.0000  1.0000  0.0000
                                      0.0000  0.0000  1.0000
:ANG003:  ANGLE WITH OLD X-AXIS =         0.0

:ETA003:                         ASYMM. ETA =     0.00000


       ATOMNUMBER=  4 Sb2        VCOUL-ZERO =  0.25258E+00
:EFG004:                        EFG         =     0.08578   *10**21  V / m**2
                               V20  TOT/SRF=     0.07428     0.10712
                               V22  TOT/SRF=     0.00000     0.00000
                               V22M TOT/SRF=     0.00000     0.00000
                               V21  TOT/SRF=     0.00000     0.00000
                               V21M TOT/SRF=     0.00000     0.00000

             -0.04289    0.00000    0.00000       -0.04289    0.00000    0.00000
              0.00000   -0.04289    0.00000        0.00000   -0.04289    0.00000
              0.00000    0.00000    0.08578        0.00000    0.00000    0.08578

         MAIN DIRECTIONS OF THE EFG   1.0000  0.0000  0.0000
                                      0.0000  1.0000  0.0000
                                      0.0000  0.0000  1.0000
:ANG004:  ANGLE WITH OLD X-AXIS =         0.0

:ETA004:                         ASYMM. ETA =     0.00000


     HELLMANN-FEYNMAN-FORCE IN mRy/a.u. = |F|  Fx       Fy             Fz
:FHF001:   1.ATOM      0.000000000000      0.000000000000      0.000000000000      0.000000000000

     HELLMANN-FEYNMAN-FORCE IN mRy/a.u. = |F|  Fx       Fy             Fz
:FHF002:   2.ATOM      0.000000000000      0.000000000000      0.000000000000      0.000000000000

     HELLMANN-FEYNMAN-FORCE IN mRy/a.u. = |F|  Fx       Fy             Fz
:FHF003:   3.ATOM      0.000000000000      0.000000000000      0.000000000000      0.000000000000

     HELLMANN-FEYNMAN-FORCE IN mRy/a.u. = |F|  Fx       Fy             Fz
:FHF004:   4.ATOM   1251.230743092176      0.000000000000      0.000000000000   1251.230743092176

:FIT001: LUSE= 13 SIGMA OF V-XC FIT FOR ATOM  1  0.8633600E-05
:FIT001: LUSE= 13 SIGMA OF V-XC FIT FOR ATOM  1  0.8633600E-05
:FIT002: LUSE= 13 SIGMA OF V-XC FIT FOR ATOM  2  0.3219220E-02
:FIT002: LUSE= 13 SIGMA OF V-XC FIT FOR ATOM  2  0.3219220E-02
:FIT003: LUSE= 13 SIGMA OF V-XC FIT FOR ATOM  3  0.2382034E-03
:FIT003: LUSE= 13 SIGMA OF V-XC FIT FOR ATOM  3  0.2382034E-03
:FIT004: LUSE= 13 SIGMA OF V-XC FIT FOR ATOM  4  0.4161817E-03
:FIT004: LUSE= 13 SIGMA OF V-XC FIT FOR ATOM  4  0.4161817E-03
:DEN  : DENSITY INTEGRAL  =        -33980.88116119   (Ry)
       ELS_POTENTIAL_AT Z=0 and Z=0.5:  -0.07178  -1.26633
       ELS_POTENTIAL_AT Y=0 and Y=0.5:   0.00000   0.00000
:VZERO:v0,v0c,v0x  -0.63271  -0.07178  -0.56092 v5,v5c,v5x  -2.15560  -1.26633  -0.88928
:VZERY:v0,v0c,v0x  -0.68119   0.00000  -0.68119 v5,v5c,v5x  -0.68119   0.00000  -0.68119
:VZERX:v0,v0c,v0x  -1.48555  -0.80308  -0.68247 v5,v5c,v5x  -0.99547  -0.20457  -0.79090
:LMAX-WF:   10   Non-Spherical LMAX:   4

          ATOMIC SPHERE DEPENDENT PARAMETERS FOR ATOM  Cs1       
:e__0001: OVERALL ENERGY PARAMETER IS    0.3000
          OVERALL BASIS SET ON ATOM IS LAPW
:E2_0001: E( 2)=    0.3000
             APW+lo
:E2_0001: E( 2)=   -4.5355   E(BOTTOM)=   -4.547   E(TOP)=   -4.524  1  2   152
             LOCAL ORBITAL
:E0_0001: E( 0)=    0.7000
             APW+lo
:E0_0001: E( 0)=   -1.0469   E(BOTTOM)=   -1.731   E(TOP)=   -0.363  4  5   172
             LOCAL ORBITAL
:E1_0001: E( 1)=    0.7000
             APW+lo
:E1_0001: E( 1)=   -0.6600   E(BOTTOM)=   -0.847   E(TOP)= -200.000  3 -1   141
             LOCAL ORBITAL

          ATOMIC SPHERE DEPENDENT PARAMETERS FOR ATOM  V 1       
:e__0002: OVERALL ENERGY PARAMETER IS    0.3000
          OVERALL BASIS SET ON ATOM IS LAPW
:E0_0002: E( 0)=    0.3000
             APW+lo
:E0_0002: E( 0)=   -4.3559   E(BOTTOM)=   -4.388   E(TOP)=   -4.324  2  3   151
             LOCAL ORBITAL
:E1_0002: E( 1)=    0.3000
             APW+lo
:E1_0002: E( 1)=   -2.4499   E(BOTTOM)=   -2.529   E(TOP)=   -2.370  1  2   145
             LOCAL ORBITAL
:E2_0002: E( 2)=    0.3693   E(BOTTOM)=    0.047   E(TOP)=    0.692  0  1   129
             APW+lo

          ATOMIC SPHERE DEPENDENT PARAMETERS FOR ATOM  Sb1       
:e__0003: OVERALL ENERGY PARAMETER IS    0.3000
          OVERALL BASIS SET ON ATOM IS LAPW
:E2_0003: E( 2)=    0.3000
             APW+lo
:E2_0003: E( 2)=   -1.6404   E(BOTTOM)=   -1.747   E(TOP)=   -1.534  1  2   144
             LOCAL ORBITAL
:E0_0003: E( 0)=    0.7000
             APW+lo
:E0_0003: E( 0)=   -0.6900   E(BOTTOM)=   -0.992   E(TOP)= -200.000  4 -1   151
             LOCAL ORBITAL
:E1_0003: E( 1)=    0.3000
             APW+lo

          ATOMIC SPHERE DEPENDENT PARAMETERS FOR ATOM  Sb2       
:e__0004: OVERALL ENERGY PARAMETER IS    0.3000
          OVERALL BASIS SET ON ATOM IS LAPW
:E2_0004: E( 2)=    0.3000
             APW+lo
:E2_0004: E( 2)=   -1.6188   E(BOTTOM)=   -1.723   E(TOP)=   -1.514  1  2   149
             LOCAL ORBITAL
:E0_0004: E( 0)=    0.7000
             APW+lo
:E0_0004: E( 0)=   -0.6900   E(BOTTOM)=   -0.949   E(TOP)= -200.000  4 -1   147
             LOCAL ORBITAL
:E1_0004: E( 1)=    0.3000
             APW+lo

        MPI-parallel calculation using     4 processors
        Scalapack processors array (row,col):   2   2

       K=   0.00000   0.00000   0.00000            1
:RKM  : MATRIX SIZE   797LOs: 132  RKM= 6.96  WEIGHT= 1.00  PGR:    
       EIGENVALUES ARE:
:EIG00001:      -4.5329056   -4.5329056   -4.5328397   -4.5328397   -4.5327750
:EIG00006:      -4.3530555   -4.3478128   -4.3478128   -2.4631654   -2.4423507
:EIG00011:      -2.4423507   -2.4311608   -2.4259290   -2.4259290   -2.4222356
:EIG00016:      -2.4222356   -2.4210026   -1.6264924   -1.6264924   -1.6097759
:EIG00021:      -1.6097759   -1.6082167   -1.6007375   -1.6006473   -1.5981307
:EIG00026:      -1.5981307   -1.5968429   -1.5968429   -1.5965077   -1.5957814
:EIG00031:      -1.5956745   -1.5956745   -1.5956234   -1.5956234   -1.5922964
:EIG00036:      -1.5922964   -1.5922156   -1.5922156   -1.5884803   -1.5884803
:EIG00041:      -1.5879172   -1.5879172   -1.0548429   -0.4013175   -0.3060264
:EIG00046:      -0.2334188   -0.1102615   -0.0914991   -0.0914991   -0.0876417
 
:EIG00051:      -0.0726519    0.0556523    0.1545423    0.1545423    0.2084725
:EIG00056:       0.2084725    0.2586667    0.2586667    0.2595790    0.2595790
:EIG00061:       0.2754667    0.2764449    0.2764449    0.2845749    0.2915670
:EIG00066:       0.3603725    0.4315340    0.4315340    0.4475608    0.4475608
:EIG00071:       0.4522986    0.4678311    0.5074378    0.5275922    0.5275922
:EIG00076:       0.5527093    0.6030068    0.6030068    0.6127198    0.6127198
:EIG00081:       0.6725072    0.7708308    0.7769015    0.7769015    0.8484243
:EIG00086:       0.8612717    0.9364044    0.9364044    0.9783674    0.9783674
:EIG00091:       0.9840506    0.9840506    1.0366736    1.0639447    1.1178569
:EIG00096:       1.1178569    1.1856764    1.1856764    1.2174342    1.2605561
 
:EIG00101:       1.2605561    1.2979088    1.3072588    1.3232767    1.3722633
:EIG00106:       1.3722633    1.3869341    1.3991697    1.4110711    1.4110711
:EIG00111:       1.4237076    1.4237076    1.4894646    1.4894646    1.4931208
:EIG00116:       1.5040844    1.5131965    1.5240260    1.5240260    1.5247725
:EIG00121:       1.5247725    1.5297565    1.5374841    1.5374841    1.5762800
:EIG00126:       1.6251230    1.6775963    1.6775963    1.6947662    1.6947662
:EIG00131:       1.7150576    1.7262389    1.7496739    1.7608221    1.7608221
       ********************************************************

:KPT   :      NUMBER OF K-POINTS:  13552
:GAP (global)   :    0.0    Ry =     0.0   eV (metal)
         Bandranges (emin - emax) and occupancy:
:BAN00058:  58    0.211577    0.260183  2.00000000
:BAN00059:  59    0.229673    0.265653  2.00000000
:BAN00060:  60    0.250524    0.274962  2.00000000
:BAN00061:  61    0.254726    0.342092  2.00000000
:BAN00062:  62    0.260785    0.343623  2.00000000
:BAN00063:  63    0.270654    0.351830  2.00000000
:BAN00064:  64    0.277761    0.354328  2.00000000
:BAN00065:  65    0.290443    0.359730  2.00000000
:BAN00066:  66    0.342513    0.420597  1.83723011
:BAN00067:  67    0.361782    0.436579  0.83071560
:BAN00068:  68    0.398375    0.441430  0.33205426
:BAN00069:  69    0.434360    0.465152  0.00000000
:BAN00070:  70    0.445349    0.484187  0.00000000
:BAN00071:  71    0.447725    0.500731  0.00000000
:BAN00072:  72    0.451278    0.505817  0.00000000
:BAN00073:  73    0.497129    0.531940  0.00000000
        Energy to separate low and high energystates:   -0.45236


:NOE  : NUMBER OF ELECTRONS          = 133.000

:FER  : F E R M I - ENERGY(TETRAH.M.)=   0.4113348676
:GMA  : POTENTIAL AND CHARGE CUT-OFF  12.00 Ry**.5
 
 
 
 
:POS001: ATOM   -1 X,Y,Z = 0.00000 0.00000 0.00000  MULT= 1  ZZ= 55.000  Cs1
 
       LMMAX  5
       LM=   0 0  2 0  4 0  6 0  6 6
 
:CHA001: TOTAL VALENCE CHARGE INSIDE SPHERE   1 =  16.2245    (RMT=  2.5000 )
:PCS001: PARTIAL CHARGES SPHERE =  1 S,P,D,F,PZ,PXY, D-Z2,D-XY,X2Y2,D-XZ,YZ
:QTL001: 1.7936 4.420510.0084 0.0016 1.4701 2.9504 0.0000 1.9998 4.0032 4.0054 0.0000 0.0000
        Q-s-low E-s-low   Q-p-low E-p-low   Q-d-low E-d-low   Q-f-low E-f-low
:EPL001:  1.7821 -1.0544    0.0000 10.0000    9.9945 -4.5328    0.0000 10.0000
        Q-s-hi  E-s-hi    Q-p-hi  E-p-hi    Q-d-hi  E-d-hi    Q-f-hi  E-f-hi
:EPH001:  0.0115  0.1605    4.4205 -0.0857    0.0138  0.2417    0.0016  0.2532
:VZZ001: EFG INSIDE SPHERE   1 =     2.041738      UP TO R =   2.50000
 
 
 
 
:POS002: ATOM   -2 X,Y,Z = 0.50000 0.50000 0.50000  MULT= 3  ZZ= 23.000  V 1
 
       LMMAX 10
       LM=   0 0  2 0  2 2  4 0  4 2  4 4  6 0  6 2  6 4  6 6
 
:CHA002: TOTAL VALENCE CHARGE INSIDE SPHERE   2 =  13.0391    (RMT=  2.5000 )
:PCS002: PARTIAL CHARGES SPHERE =  2 S,P,D,F,PX,PY,PZ,D-Z2,D-X2Y2,D-XY,D-XZ,D-YZ
:QTL002: 2.3511 6.4150 4.2333 0.0329 2.1240 2.1806 2.1106 0.9371 0.6660 1.0335 0.7441 0.8527
        Q-s-low E-s-low   Q-p-low E-p-low   Q-d-low E-d-low   Q-f-low E-f-low
:EPL002:  1.9982 -4.3476    5.9612 -2.4325    0.0039 -1.8130    0.0015 -1.8249
        Q-s-hi  E-s-hi    Q-p-hi  E-p-hi    Q-d-hi  E-d-hi    Q-f-hi  E-f-hi
:EPH002:  0.3528 -0.0043    0.4539  0.1297    4.2295  0.2586    0.0313  0.2015
 
                      VXX         VYY         VZZ       UP TO R
:VZZ002:             4.47335    -7.36678     2.89343       2.500
 
 
 
 
:POS003: ATOM   -3 X,Y,Z = 0.00000 0.00000 0.50000  MULT= 1  ZZ= 51.000  Sb1
 
       LMMAX  5
       LM=   0 0  2 0  4 0  6 0  6 6
 
:CHA003: TOTAL VALENCE CHARGE INSIDE SPHERE   3 =  12.2799    (RMT=  2.4300 )
:PCS003: PARTIAL CHARGES SPHERE =  3 S,P,D,F,PZ,PXY, D-Z2,D-XY,X2Y2,D-XZ,YZ
:QTL003: 1.1227 1.1563 9.9739 0.0231 0.2049 0.9515 0.0000 1.9853 4.0037 3.9849 0.0000 0.0000
        Q-s-low E-s-low   Q-p-low E-p-low   Q-d-low E-d-low   Q-f-low E-f-low
:EPL003:  0.0010 -2.1812    0.0011 -2.5050    9.8941 -1.6159    0.0004 -2.4969
        Q-s-hi  E-s-hi    Q-p-hi  E-p-hi    Q-d-hi  E-d-hi    Q-f-hi  E-f-hi
:EPH003:  1.1217 -0.2524    1.1553  0.1556    0.0797  0.2394    0.0228  0.2378
:VZZ003: EFG INSIDE SPHERE   3 =    63.528529      UP TO R =   2.43000
 
 
 
 
:POS004: ATOM   -4 X,Y,Z = 0.66667 0.33333 0.74217  MULT= 4  ZZ= 51.000  Sb2
 
       LMMAX 12
       LM=   0 0  1 0  2 0  3 0  3 3  4 0  4 3  5 0  5 3  6 0  6 3  6 6
 
:CHA004: TOTAL VALENCE CHARGE INSIDE SPHERE   4 =  12.2610    (RMT=  2.4300 )
:PCS004: PARTIAL CHARGES SPHERE =  4 S,P,D,F,PZ,PXY, D-Z2,D-XY,X2Y2,D-XZ,YZ
:QTL004: 1.2291 1.0585 9.9571 0.0140 0.4411 0.6174 0.0000 1.9963 3.9782 3.9825 0.0000 0.0000
        Q-s-low E-s-low   Q-p-low E-p-low   Q-d-low E-d-low   Q-f-low E-f-low
:EPL004:  0.0004 -2.1471    0.0008 -2.1079    9.8983 -1.5944    0.0004 -2.0051
        Q-s-hi  E-s-hi    Q-p-hi  E-p-hi    Q-d-hi  E-d-hi    Q-f-hi  E-f-hi
:EPH004:  1.2286 -0.1466    1.0575  0.2265    0.0588  0.2037    0.0136  0.2500
:VZZ004: EFG INSIDE SPHERE   4 =   -32.305159      UP TO R =   2.43000
 
:CHA  : TOTAL VALENCE CHARGE INSIDE UNIT CELL =     133.000001
 
:SUM  : SUM OF EIGENVALUES =        -192.571588871
 

        1.ATOM      Cs1                  12 CORE STATES
:1S 001: 1S               -2628.267412753 Ry
:2S 001: 2S                -411.340927330 Ry
:2PP001: 2P*               -386.903666116 Ry
:2P 001: 2P                -361.011912019 Ry
:3S 001: 3S                 -84.791246495 Ry
:3PP001: 3P*                -74.587820615 Ry
:3P 001: 3P                 -69.625975222 Ry
:3DD001: 3D*                -51.706649224 Ry
:3D 001: 3D                 -50.653327193 Ry
:4S 001: 4S                 -15.257551513 Ry
:4PP001: 4P*                -11.596754371 Ry
:4P 001: 4P                 -10.584866667 Ry

        2.ATOM      V 1                   4 CORE STATES
:1S 002: 1S                -393.380457591 Ry
:2S 002: 2S                 -43.440026257 Ry
:2PP002: 2P*                -36.476431233 Ry
:2P 002: 2P                 -35.954688375 Ry

        3.ATOM      Sb1                  12 CORE STATES
:1S 003: 1S               -2225.041745024 Ry
:2S 003: 2S                -337.740949413 Ry
:2PP003: 2P*               -315.901803854 Ry
:2P 003: 2P                -297.393633959 Ry
:3S 003: 3S                 -65.520859790 Ry
:3PP003: 3P*                -56.596809931 Ry
:3P 003: 3P                 -53.181817653 Ry
:3DD003: 3D*                -37.430095537 Ry
:3D 003: 3D                 -36.720446998 Ry
:4S 003: 4S                 -10.073855659 Ry
:4PP003: 4P*                 -7.058768203 Ry
:4P 003: 4P                  -6.428907976 Ry

        4.ATOM      Sb2                  12 CORE STATES
       CORE-FORCE in mRy/a.u. = |F|      Fx             Fy             Fz
:FCO004:   4.ATOM    957.032298112587      0.000000000000      0.000000000000   -957.032298112587

:1S 004: 1S               -2225.028625441 Ry
:2S 004: 2S                -337.727737338 Ry
:2PP004: 2P*               -315.888616953 Ry
:2P 004: 2P                -297.380439898 Ry
:3S 004: 3S                 -65.507055394 Ry
:3PP004: 3P*                -56.583034019 Ry
:3P 004: 3P                 -53.167993858 Ry
:3DD004: 3D*                -37.416376431 Ry
:3D 004: 3D                 -36.706713999 Ry
:4S 004: 4S                 -10.056605002 Ry
:4PP004: 4P*                 -7.040942312 Ry
:4P 004: 4P                  -6.410701157 Ry
:CINT001 Core Integral Atom   1   35.999908
:CINT002 Core Integral Atom   2   10.000000
:CINT003 Core Integral Atom   3   35.997972
:CINT004 Core Integral Atom   4   35.998009

       DENSITY AT NUCLEUS
        JATOM        VALENCE       SEMI-CORE          CORE           TOTAL
:RTO001:   1      320.055906        0.000000   438170.804215   438490.860122
:RTO002:   2      117.023398        0.000000     9866.170259     9983.193657
:RTO003:   3      110.540420        0.000000   290608.331396   290718.871816
:RTO004:   4      125.428512        0.000000   290608.861254   290734.289766
     
       CHARGES OF NEW CHARGE DENSITY
:NTO   : INTERSTITIAL CHARGE =    16.334256
:NPC   : INTERSTITIAL CHARGE =    32.858452
:NTO001: CHARGE SPHERE  1    =    52.224429
:NTO002: CHARGE SPHERE  2    =    23.039060
:NTO003: CHARGE SPHERE  3    =    48.277789
:NTO004: CHARGE SPHERE  4    =    48.259054

:NEC01: NUCLEAR AND ELECTRONIC CHARGE    379.00000   378.98987
     
       CHARGES OF OLD CHARGE DENSITY
:OTO   : INTERSTITIAL CHARGE =    17.587743
:OPC   : INTERSTITIAL CHARGE =    46.131855
:OTO001: CHARGE SPHERE  1    =    52.339035
:OTO002: CHARGE SPHERE  2    =    21.895113
:OTO003: CHARGE SPHERE  3    =    48.776857
:OTO004: CHARGE SPHERE  4    =    48.655635

:NEC02: NUCLEAR AND ELECTRONIC CHARGE    379.00000   379.01152
     
       CONVERGENCE TEST
:DTO001: DIFFERENCE IN SPHERE  1 =  0.1069701
:DTO002: DIFFERENCE IN SPHERE  2 =  0.6938484
:DTO003: DIFFERENCE IN SPHERE  3 =  0.2817796
:DTO004: DIFFERENCE IN SPHERE  4 =  0.2170893

:DIS  :  CHARGE DISTANCE       ( 0.6938484 for atom    2 spin 1)      0.3709614
 
******************************************************
* MULTISECANT MIXING VER9 RELEASE 9.4.1              *
* Standard Mode with controls                        *
* Fixed density scale                                *
* Regularization       1.000E-04                     *
* Trust Upper Limit    5.000E+00                     *
* Max Number of Memory Steps    8                    *
******************************************************
 
:PWTMP   1.0803E+03  1.1250E+03  1.6426E+03
:PLANE:  PW TOTAL      7.0545 DISTAN   2.92E+00  4.14E+01 %
:CHARG:  CLM/ATOM    474.7657 DISTAN   3.58E-01  7.54E-02 %
 
Step History
        DMIX         DMIXT        Red     Pred      Trust     Lambda    MagRel    MagAbs     Beta
  1   3.5000E-02   3.5000E-02 -1.00E+00  1.00E+00 -1.00E+01  1.00E+00  3.50E-02  3.50E-02  1.00E+00
:INFO :  Note, Pratt in use
:TRUST:  Step 3.75E-02  Charge 5.00E-02 (e) CTO  2.65E-01 (e) PW  3.71E-01 (e)
:DIRM :  MEMORY  0/ 8 SCALE   1.000
:MIX  :   PRATT  REGULARIZATION:  1.00E-04 GREED: 0.02500                  
     
       CHARGES OF MIXED CHARGE DENSITY
:CTO   : INTERSTITIAL CHARGE =    17.545432
:CPC   : INTERSTITIAL CHARGE =    45.771081
:CTO001: CHARGE SPHERE  1    =    52.336170
:CTO002: CHARGE SPHERE  2    =    21.923712
:CTO003: CHARGE SPHERE  3    =    48.764380
:CTO004: CHARGE SPHERE  4    =    48.645721

:NEC03: NUCLEAR AND ELECTRONIC CHARGE    379.00000   379.00000

PW CHANGE     H    K    L      Current       Change    Residue
:PTO001:      0    0    0  3.85469889E-02 -2.200E-04 -8.800E-03
:PTO002:      0    0   -1 -1.21648719E-02  3.928E-05  1.571E-03
:PTO003:     -1    0    0 -1.40900931E-03  2.410E-05  9.640E-04
:PTO004:      0    0   -2 -7.67382346E-04  1.178E-04  4.712E-03
:PTO005:     -1    0   -1  3.35152771E-02  8.359E-05  3.344E-03
:PTO006:     -1    0   -2  1.00204463E-01 -8.722E-04 -3.489E-02
:PTO007:      0    0   -3 -6.43908779E-04  1.989E-05  7.957E-04
:PTO008:     -2    1    0  5.41086169E-02 -5.448E-04 -2.179E-02
:PTO009:     -2    1   -1  1.33491729E-02  4.025E-06  1.610E-04
:PTO010:     -1    0   -3  1.14810162E-02  1.104E-05  4.415E-04
:PTO011:     -2    0    0  1.18336694E-02 -1.527E-04 -6.109E-03
:PTO012:     -2    1   -2 -2.18121427E-02  5.094E-04  2.037E-02

:ENE  : ********** TOTAL ENERGY IN Ry =       -86113.37917051

       TOTAL FORCE IN mRy/a.u. = |F|     Fx             Fy             Fz     with/without FOR in case.in2
:FOR001:   1.ATOM          0.000          0.000          0.000          0.000 partial forces
:FOR002:   2.ATOM          0.000          0.000          0.000          0.000 partial forces
:FOR003:   3.ATOM          0.000          0.000          0.000          0.000 partial forces
:FOR004:   4.ATOM        294.198          0.000          0.000        294.198 partial forces
       TOTAL FORCE WITH RESPECT TO GLOBAL CARTESIAN COORDINATES:
:FCA001:   1.ATOM                         0.000          0.000          0.000 partial forces
:FCA002:   2.ATOM                         0.000          0.000          0.000 partial forces
:FCA003:   3.ATOM                         0.000          0.000          0.000 partial forces
:FCA004:   4.ATOM                         0.000          0.000        294.198 partial forces
       TOTAL FORCE WITH RESPECT TO THE GLOBAL COORDINATE SYSTEM:
:FGL001:   1.ATOM                 0.000000000     0.000000000     0.000000000 partial forces
:FGL002:   2.ATOM                 0.000000000     0.000000000     0.000000000 partial forces
:FGL003:   3.ATOM                 0.000000000     0.000000000     0.000000000 partial forces
:FGL004:   4.ATOM                 0.000000000     0.000000000   294.198444980 partial forces
 Flat Integration
 New Mode for Coulomb Integral
 Consistent 3/8+Simpson combinations
 Extension of core to zero
 LDM version in phi
 Fifth-order quadrature in outwin


            ---------
:ITE002:  2. ITERATION
            ---------

:NATO :    4 INDEPENDENT AND    9 TOTAL ATOMS IN UNITCELL
       SUBSTANCE: CsV3Sb5_nm_no_relaxation                                    

       LATTICE                      = H   
:POT  : POTENTIAL OPTION EX_PBE EC_PBE VX_PBE VC_PBE
:LAT  : LATTICE CONSTANTS= 10.38386 10.38386 17.59052
:VOL  : UNIT CELL VOLUME =    1642.57998
       MODE OF CALCULATION IS       = RELA
       NON-SPINPOLARIZED CALCULATION
:IFFT  : FFT-parameters:   80   80  144 Factor: 2.00
       ATOMNUMBER=  1 Cs1        VCOUL-ZERO =  0.24687E+00
:EFG001:                        EFG         =     0.04436   *10**21  V / m**2
                               V20  TOT/SRF=     0.03842    -0.00516
                               V22  TOT/SRF=     0.00000     0.00000
                               V22M TOT/SRF=     0.00000     0.00000
                               V21  TOT/SRF=     0.00000     0.00000
                               V21M TOT/SRF=     0.00000     0.00000

             -0.02218    0.00000    0.00000       -0.02218    0.00000    0.00000
              0.00000   -0.02218    0.00000        0.00000   -0.02218    0.00000
              0.00000    0.00000    0.04436        0.00000    0.00000    0.04436

         MAIN DIRECTIONS OF THE EFG   1.0000  0.0000  0.0000
                                      0.0000  1.0000  0.0000
                                      0.0000  0.0000  1.0000
:ANG001:  ANGLE WITH OLD X-AXIS =         0.0

:ETA001:                         ASYMM. ETA =     0.00000


       ATOMNUMBER=  2 V 1        VCOUL-ZERO =  0.24542E+00
:EFG002:                        EFG         =    -0.08063   *10**21  V / m**2
                               V20  TOT/SRF=     0.00109    -0.08659
                               V22  TOT/SRF=     0.08000    -0.09880
                               V22M TOT/SRF=     0.00000     0.00000
                               V21  TOT/SRF=     0.00000     0.00000
                               V21M TOT/SRF=     0.00000     0.00000

              0.07937    0.00000    0.00000        0.07937    0.00000    0.00000
              0.00000   -0.08063    0.00000        0.00000   -0.08063    0.00000
              0.00000    0.00000    0.00126        0.00000    0.00000    0.00126

         MAIN DIRECTIONS OF THE EFG   1.0000  0.0000  0.0000
                                      0.0000  1.0000  0.0000
                                      0.0000  0.0000  1.0000
:ANG002:  ANGLE WITH OLD X-AXIS =         0.0

:ETA002:                         ASYMM. ETA =     0.96883


       ATOMNUMBER=  3 Sb1        VCOUL-ZERO =  0.21468E+00
:EFG003:                        EFG         =     1.40487   *10**21  V / m**2
                               V20  TOT/SRF=     1.21666    -0.25526
                               V22  TOT/SRF=     0.00000     0.00000
                               V22M TOT/SRF=     0.00000     0.00000
                               V21  TOT/SRF=     0.00000     0.00000
                               V21M TOT/SRF=     0.00000     0.00000

             -0.70244    0.00000    0.00000       -0.70244    0.00000    0.00000
              0.00000   -0.70244    0.00000        0.00000   -0.70244    0.00000
              0.00000    0.00000    1.40487        0.00000    0.00000    1.40487

         MAIN DIRECTIONS OF THE EFG   1.0000  0.0000  0.0000
                                      0.0000  1.0000  0.0000
                                      0.0000  0.0000  1.0000
:ANG003:  ANGLE WITH OLD X-AXIS =         0.0

:ETA003:                         ASYMM. ETA =     0.00000


       ATOMNUMBER=  4 Sb2        VCOUL-ZERO =  0.24944E+00
:EFG004:                        EFG         =    -0.73108   *10**21  V / m**2
                               V20  TOT/SRF=    -0.63314     0.09609
                               V22  TOT/SRF=     0.00000     0.00000
                               V22M TOT/SRF=     0.00000     0.00000
                               V21  TOT/SRF=     0.00000     0.00000
                               V21M TOT/SRF=     0.00000     0.00000

              0.36554    0.00000    0.00000        0.36554    0.00000    0.00000
              0.00000    0.36554    0.00000        0.00000    0.36554    0.00000
              0.00000    0.00000   -0.73108        0.00000    0.00000   -0.73108

         MAIN DIRECTIONS OF THE EFG   1.0000  0.0000  0.0000
                                      0.0000  1.0000  0.0000
                                      0.0000  0.0000  1.0000
:ANG004:  ANGLE WITH OLD X-AXIS =         0.0

:ETA004:                         ASYMM. ETA =     0.00000


     HELLMANN-FEYNMAN-FORCE IN mRy/a.u. = |F|  Fx       Fy             Fz
:FHF001:   1.ATOM      0.000000000000      0.000000000000      0.000000000000      0.000000000000

     HELLMANN-FEYNMAN-FORCE IN mRy/a.u. = |F|  Fx       Fy             Fz
:FHF002:   2.ATOM      0.000000000000      0.000000000000      0.000000000000      0.000000000000

     HELLMANN-FEYNMAN-FORCE IN mRy/a.u. = |F|  Fx       Fy             Fz
:FHF003:   3.ATOM      0.000000000000      0.000000000000      0.000000000000      0.000000000000

     HELLMANN-FEYNMAN-FORCE IN mRy/a.u. = |F|  Fx       Fy             Fz
:FHF004:   4.ATOM    751.548712741977      0.000000000000      0.000000000000    751.548712741977

:FIT001: LUSE= 13 SIGMA OF V-XC FIT FOR ATOM  1  0.8782542E-05
:FIT001: LUSE= 13 SIGMA OF V-XC FIT FOR ATOM  1  0.8782542E-05
:FIT002: LUSE= 13 SIGMA OF V-XC FIT FOR ATOM  2  0.3184053E-02
:FIT002: LUSE= 13 SIGMA OF V-XC FIT FOR ATOM  2  0.3184053E-02
:FIT003: LUSE= 13 SIGMA OF V-XC FIT FOR ATOM  3  0.2258601E-03
:FIT003: LUSE= 13 SIGMA OF V-XC FIT FOR ATOM  3  0.2258601E-03
:FIT004: LUSE= 13 SIGMA OF V-XC FIT FOR ATOM  4  0.4156647E-03
:FIT004: LUSE= 13 SIGMA OF V-XC FIT FOR ATOM  4  0.4156647E-03
:DEN  : DENSITY INTEGRAL  =        -33981.69467367   (Ry)
       ELS_POTENTIAL_AT Z=0 and Z=0.5:  -0.09166  -1.22548
       ELS_POTENTIAL_AT Y=0 and Y=0.5:   0.00000   0.00000
:VZERO:v0,v0c,v0x  -0.65187  -0.09166  -0.56021 v5,v5c,v5x  -2.11363  -1.22548  -0.88815
:VZERY:v0,v0c,v0x  -0.68011   0.00000  -0.68011 v5,v5c,v5x  -0.68011   0.00000  -0.68011
:VZERX:v0,v0c,v0x  -1.48661  -0.80643  -0.68019 v5,v5c,v5x  -0.98508  -0.19465  -0.79044
:LMAX-WF:   10   Non-Spherical LMAX:   4

          ATOMIC SPHERE DEPENDENT PARAMETERS FOR ATOM  Cs1       
:e__0001: OVERALL ENERGY PARAMETER IS    0.2409
          OVERALL BASIS SET ON ATOM IS LAPW
:E2_0001: E( 2)=    0.2409
             APW+lo
:E2_0001: E( 2)=   -4.5567   E(BOTTOM)=   -4.568   E(TOP)=   -4.545  1  2   149
             LOCAL ORBITAL
:E0_0001: E( 0)=    0.6409
             APW+lo
:E0_0001: E( 0)=   -1.0672   E(BOTTOM)=   -1.751   E(TOP)=   -0.384  4  5   170
             LOCAL ORBITAL
:E1_0001: E( 1)=    0.6409
             APW+lo
:E1_0001: E( 1)=   -0.6600   E(BOTTOM)=   -0.867   E(TOP)= -200.000  3 -1   143
             LOCAL ORBITAL

          ATOMIC SPHERE DEPENDENT PARAMETERS FOR ATOM  V 1       
:e__0002: OVERALL ENERGY PARAMETER IS    0.2409
          OVERALL BASIS SET ON ATOM IS LAPW
:E0_0002: E( 0)=    0.2409
             APW+lo
:E0_0002: E( 0)=   -4.3089   E(BOTTOM)=   -4.341   E(TOP)=   -4.277  2  3   154
             LOCAL ORBITAL
:E1_0002: E( 1)=    0.2409
             APW+lo
:E1_0002: E( 1)=   -2.4040   E(BOTTOM)=   -2.484   E(TOP)=   -2.324  1  2   155
             LOCAL ORBITAL
:E2_0002: E( 2)=    0.4120   E(BOTTOM)=    0.086   E(TOP)=    0.738  0  1   132
             APW+lo

          ATOMIC SPHERE DEPENDENT PARAMETERS FOR ATOM  Sb1       
:e__0003: OVERALL ENERGY PARAMETER IS    0.2409
          OVERALL BASIS SET ON ATOM IS LAPW
:E2_0003: E( 2)=    0.2409
             APW+lo
:E2_0003: E( 2)=   -1.6313   E(BOTTOM)=   -1.737   E(TOP)=   -1.525  1  2   142
             LOCAL ORBITAL
:E0_0003: E( 0)=    0.6409
             APW+lo
:E0_0003: E( 0)=   -0.6900   E(BOTTOM)=   -0.980   E(TOP)= -200.000  4 -1   149
             LOCAL ORBITAL
:E1_0003: E( 1)=    0.2409
             APW+lo

          ATOMIC SPHERE DEPENDENT PARAMETERS FOR ATOM  Sb2       
:e__0004: OVERALL ENERGY PARAMETER IS    0.2409
          OVERALL BASIS SET ON ATOM IS LAPW
:E2_0004: E( 2)=    0.2409
             APW+lo
:E2_0004: E( 2)=   -1.6258   E(BOTTOM)=   -1.730   E(TOP)=   -1.521  1  2   152
             LOCAL ORBITAL
:E0_0004: E( 0)=    0.6409
             APW+lo
:E0_0004: E( 0)=   -0.6900   E(BOTTOM)=   -0.953   E(TOP)= -200.000  4 -1   151
             LOCAL ORBITAL
:E1_0004: E( 1)=    0.2409
             APW+lo

        MPI-parallel calculation using     4 processors
        Scalapack processors array (row,col):   2   2

       K=   0.00000   0.00000   0.00000            1
:RKM  : MATRIX SIZE   797LOs: 132  RKM= 6.96  WEIGHT= 1.00  PGR:    
       EIGENVALUES ARE:
:EIG00001:      -4.5542009   -4.5542009   -4.5540069   -4.5540069   -4.5538993
:EIG00006:      -4.3060281   -4.3007455   -4.3007455   -2.4160425   -2.3962553
:EIG00011:      -2.3962553   -2.3862221   -2.3809031   -2.3809031   -2.3752701
:EIG00016:      -2.3752701   -2.3752266   -1.6160984   -1.6160984   -1.6071637
:EIG00021:      -1.6070390   -1.6048063   -1.6048063   -1.6035549   -1.6035549
:EIG00026:      -1.6029223   -1.6029024   -1.6029024   -1.6024010   -1.6024010
:EIG00031:      -1.6021530   -1.6009294   -1.6009294   -1.6003565   -1.5999173
:EIG00036:      -1.5999173   -1.5998316   -1.5998316   -1.5960568   -1.5960568
:EIG00041:      -1.5955574   -1.5955574   -1.0751270   -0.3909822   -0.3068888
:EIG00046:      -0.2232315   -0.1117706   -0.1117706   -0.1051849   -0.1003670
 
:EIG00051:      -0.0678391    0.0772217    0.1710250    0.1710250    0.2269738
:EIG00056:       0.2269738    0.2754193    0.2754193    0.2848489    0.2858399
:EIG00061:       0.2858399    0.2905772    0.2905772    0.2938196    0.3032619
:EIG00066:       0.3658071    0.4733393    0.4733393    0.4736847    0.4887068
:EIG00071:       0.4887068    0.4927712    0.5395529    0.5497627    0.5497627
:EIG00076:       0.5979965    0.6062549    0.6062549    0.6106861    0.6106861
:EIG00081:       0.6701738    0.7842783    0.7842783    0.7860834    0.8423868
:EIG00086:       0.8690322    0.9378405    0.9378405    0.9791559    0.9791559
:EIG00091:       0.9844660    0.9844660    1.0328937    1.0653702    1.1249060
:EIG00096:       1.1249060    1.1888403    1.1888403    1.2147449    1.2562900
 
:EIG00101:       1.2562900    1.2914266    1.3095938    1.3345089    1.3740114
:EIG00106:       1.3740114    1.3751630    1.3985687    1.3985687    1.4070710
:EIG00111:       1.4284396    1.4284396    1.4955904    1.4955904    1.5019842
:EIG00116:       1.5033615    1.5157859    1.5157859    1.5169420    1.5234506
:EIG00121:       1.5234506    1.5369019    1.5369019    1.5389179    1.5683007
:EIG00126:       1.6290593    1.6695112    1.6695112    1.6972922    1.6972922
:EIG00131:       1.7006699    1.7285587    1.7454981    1.7563052    1.7563052
       ********************************************************

:KPT   :      NUMBER OF K-POINTS:  13552
:GAP (global)   :    0.0    Ry =     0.0   eV (metal)
         Bandranges (emin - emax) and occupancy:
:BAN00058:  58    0.226830    0.275419  2.00000000
:BAN00059:  59    0.246282    0.287406  2.00000000
:BAN00060:  60    0.262248    0.304762  2.00000000
:BAN00061:  61    0.283157    0.358762  2.00000000
:BAN00062:  62    0.287818    0.364646  2.00000000
:BAN00063:  63    0.290543    0.371794  2.00000000
:BAN00064:  64    0.291410    0.380675  2.00000000
:BAN00065:  65    0.302281    0.387981  2.00000000
:BAN00066:  66    0.349275    0.443860  1.96816611
:BAN00067:  67    0.393000    0.473753  0.75609113
:BAN00068:  68    0.433509    0.480970  0.27574273
:BAN00069:  69    0.469555    0.507825  0.00000000
:BAN00070:  70    0.475864    0.508739  0.00000000
:BAN00071:  71    0.485870    0.518621  0.00000000
:BAN00072:  72    0.490418    0.523727  0.00000000
:BAN00073:  73    0.516947    0.548791  0.00000000
        Energy to separate low and high energystates:    0.02722


:NOE  : NUMBER OF ELECTRONS          = 133.000

:FER  : F E R M I - ENERGY(TETRAH.M.)=   0.4398654969
:GMA  : POTENTIAL AND CHARGE CUT-OFF  12.00 Ry**.5
 
 
 
 
:POS001: ATOM   -1 X,Y,Z = 0.00000 0.00000 0.00000  MULT= 1  ZZ= 55.000  Cs1
 
       LMMAX  5
       LM=   0 0  2 0  4 0  6 0  6 6
 
:CHA001: TOTAL VALENCE CHARGE INSIDE SPHERE   1 =  16.2435    (RMT=  2.5000 )
:PCS001: PARTIAL CHARGES SPHERE =  1 S,P,D,F,PZ,PXY, D-Z2,D-XY,X2Y2,D-XZ,YZ
:QTL001: 1.7954 4.434310.0117 0.0020 1.4754 2.9589 0.0000 2.0001 4.0047 4.0069 0.0000 0.0000
        Q-s-low E-s-low   Q-p-low E-p-low   Q-d-low E-d-low   Q-f-low E-f-low
:EPL001:  1.7841 -1.0740    4.2730 -0.1164    9.9953 -4.5537    0.0000 10.0000
        Q-s-hi  E-s-hi    Q-p-hi  E-p-hi    Q-d-hi  E-d-hi    Q-f-hi  E-f-hi
:EPH001:  0.0112  0.2471    0.1611  0.2122    0.0164  0.2781    0.0018  0.3017
:VZZ001: EFG INSIDE SPHERE   1 =     1.503334      UP TO R =   2.50000
 
 
 
 
:POS002: ATOM   -2 X,Y,Z = 0.50000 0.50000 0.50000  MULT= 3  ZZ= 23.000  V 1
 
       LMMAX 10
       LM=   0 0  2 0  2 2  4 0  4 2  4 4  6 0  6 2  6 4  6 6
 
:CHA002: TOTAL VALENCE CHARGE INSIDE SPHERE   2 =  12.6613    (RMT=  2.5000 )
:PCS002: PARTIAL CHARGES SPHERE =  2 S,P,D,F,PX,PY,PZ,D-Z2,D-X2Y2,D-XY,D-XZ,D-YZ
:QTL002: 2.3435 6.4132 3.8654 0.0326 2.1230 2.1763 2.1138 0.8525 0.6183 0.9894 0.6531 0.7519
        Q-s-low E-s-low   Q-p-low E-p-low   Q-d-low E-d-low   Q-f-low E-f-low
:EPL002:  2.1036 -4.0992    6.0554 -2.3524    0.1150 -0.2363    0.0059 -0.5960
        Q-s-hi  E-s-hi    Q-p-hi  E-p-hi    Q-d-hi  E-d-hi    Q-f-hi  E-f-hi
:EPH002:  0.2399  0.1472    0.3579  0.2527    3.7504  0.2989    0.0266  0.2970
 
                      VXX         VYY         VZZ       UP TO R
:VZZ002:             4.19211    -7.93346     3.74135       2.500
 
 
 
 
:POS003: ATOM   -3 X,Y,Z = 0.00000 0.00000 0.50000  MULT= 1  ZZ= 51.000  Sb1
 
       LMMAX  5
       LM=   0 0  2 0  4 0  6 0  6 6
 
:CHA003: TOTAL VALENCE CHARGE INSIDE SPHERE   3 =  12.3390    (RMT=  2.4300 )
:PCS003: PARTIAL CHARGES SPHERE =  3 S,P,D,F,PZ,PXY, D-Z2,D-XY,X2Y2,D-XZ,YZ
:QTL003: 1.1342 1.2030 9.9749 0.0229 0.2243 0.9788 0.0000 1.9850 4.0043 3.9856 0.0000 0.0000
        Q-s-low E-s-low   Q-p-low E-p-low   Q-d-low E-d-low   Q-f-low E-f-low
:EPL003:  1.0896 -0.2546    0.0202 -0.3660    9.9009 -1.6060    0.0009 -1.2604
        Q-s-hi  E-s-hi    Q-p-hi  E-p-hi    Q-d-hi  E-d-hi    Q-f-hi  E-f-hi
:EPH003:  0.0446  0.2066    1.1830  0.1885    0.0742  0.3096    0.0220  0.2792
:VZZ003: EFG INSIDE SPHERE   3 =    62.548377      UP TO R =   2.43000
 
 
 
 
:POS004: ATOM   -4 X,Y,Z = 0.66667 0.33333 0.74217  MULT= 4  ZZ= 51.000  Sb2
 
       LMMAX 12
       LM=   0 0  1 0  2 0  3 0  3 3  4 0  4 3  5 0  5 3  6 0  6 3  6 6
 
:CHA004: TOTAL VALENCE CHARGE INSIDE SPHERE   4 =  12.3789    (RMT=  2.4300 )
:PCS004: PARTIAL CHARGES SPHERE =  4 S,P,D,F,PZ,PXY, D-Z2,D-XY,X2Y2,D-XZ,YZ
:QTL004: 1.2379 1.1674 9.9573 0.0140 0.4842 0.6832 0.0000 1.9963 3.9794 3.9815 0.0000 0.0000
        Q-s-low E-s-low   Q-p-low E-p-low   Q-d-low E-d-low   Q-f-low E-f-low
:EPL004:  1.0542 -0.2208    0.0567 -0.2274    9.9045 -1.6006    0.0012 -0.8045
        Q-s-hi  E-s-hi    Q-p-hi  E-p-hi    Q-d-hi  E-d-hi    Q-f-hi  E-f-hi
:EPH004:  0.1837  0.2617    1.1109  0.2668    0.0528  0.2692    0.0128  0.3077
:VZZ004: EFG INSIDE SPHERE   4 =   -35.026442      UP TO R =   2.43000
 
:CHA  : TOTAL VALENCE CHARGE INSIDE UNIT CELL =     133.000000
 
:SUM  : SUM OF EIGENVALUES =        -191.347394436
 

        1.ATOM      Cs1                  12 CORE STATES
:1S 001: 1S               -2628.290544110 Ry
:2S 001: 2S                -411.363576080 Ry
:2PP001: 2P*               -386.926407489 Ry
:2P 001: 2P                -361.034622453 Ry
:3S 001: 3S                 -84.813255759 Ry
:3PP001: 3P*                -74.609858836 Ry
:3P 001: 3P                 -69.647984965 Ry
:3DD001: 3D*                -51.728728782 Ry
:3D 001: 3D                 -50.675396536 Ry
:4S 001: 4S                 -15.278923763 Ry
:4PP001: 4P*                -11.618098464 Ry
:4P 001: 4P                 -10.606178431 Ry

        2.ATOM      V 1                   4 CORE STATES
:1S 002: 1S                -393.325076179 Ry
:2S 002: 2S                 -43.385368655 Ry
:2PP002: 2P*                -36.421594277 Ry
:2P 002: 2P                 -35.899866969 Ry

        3.ATOM      Sb1                  12 CORE STATES
:1S 003: 1S               -2225.037288875 Ry
:2S 003: 2S                -337.735874152 Ry
:2PP003: 2P*               -315.896850235 Ry
:2P 003: 2P                -297.388645069 Ry
:3S 003: 3S                 -65.514674360 Ry
:3PP003: 3P*                -56.590670476 Ry
:3P 003: 3P                 -53.175627254 Ry
:3DD003: 3D*                -37.424038450 Ry
:3D 003: 3D                 -36.714372699 Ry
:4S 003: 4S                 -10.065806670 Ry
:4PP003: 4P*                 -7.050553712 Ry
:4P 003: 4P                  -6.420577650 Ry

        4.ATOM      Sb2                  12 CORE STATES
       CORE-FORCE in mRy/a.u. = |F|      Fx             Fy             Fz
:FCO004:   4.ATOM    604.994785973917      0.000000000000      0.000000000000   -604.994785973917

:1S 004: 1S               -2225.039186613 Ry
:2S 004: 2S                -337.737790682 Ry
:2PP004: 2P*               -315.898771280 Ry
:2P 004: 2P                -297.390565237 Ry
:3S 004: 3S                 -65.516238249 Ry
:3PP004: 3P*                -56.592252813 Ry
:3P 004: 3P                 -53.177173732 Ry
:3DD004: 3D*                -37.425657532 Ry
:3D 004: 3D                 -36.715981842 Ry
:4S 004: 4S                 -10.064408417 Ry
:4PP004: 4P*                 -7.048627731 Ry
:4P 004: 4P                  -6.418303427 Ry
:CINT001 Core Integral Atom   1   35.999908
:CINT002 Core Integral Atom   2   10.000000
:CINT003 Core Integral Atom   3   35.997979
:CINT004 Core Integral Atom   4   35.998014

       DENSITY AT NUCLEUS
        JATOM        VALENCE       SEMI-CORE          CORE           TOTAL
:RTO001:   1      320.626097        0.000000   438170.966801   438491.592897
:RTO002:   2      116.793273        0.000000     9866.148495     9982.941768
:RTO003:   3      112.032446        0.000000   290608.624100   290720.656546
:RTO004:   4      126.539435        0.000000   290609.080314   290735.619749
     
       CHARGES OF NEW CHARGE DENSITY
:NTO   : INTERSTITIAL CHARGE =    16.917666
:NPC   : INTERSTITIAL CHARGE =    33.321227
:NTO001: CHARGE SPHERE  1    =    52.243366
:NTO002: CHARGE SPHERE  2    =    22.661330
:NTO003: CHARGE SPHERE  3    =    48.336949
:NTO004: CHARGE SPHERE  4    =    48.376982

:NEC01: NUCLEAR AND ELECTRONIC CHARGE    379.00000   378.98990
     
       CHARGES OF OLD CHARGE DENSITY
:OTO   : INTERSTITIAL CHARGE =    17.545432
:OPC   : INTERSTITIAL CHARGE =    45.771081
:OTO001: CHARGE SPHERE  1    =    52.336170
:OTO002: CHARGE SPHERE  2    =    21.923712
:OTO003: CHARGE SPHERE  3    =    48.764380
:OTO004: CHARGE SPHERE  4    =    48.645721

:NEC02: NUCLEAR AND ELECTRONIC CHARGE    379.00000   379.00000
     
       CONVERGENCE TEST
:DTO001: DIFFERENCE IN SPHERE  1 =  0.0944833
:DTO002: DIFFERENCE IN SPHERE  2 =  0.3807915
:DTO003: DIFFERENCE IN SPHERE  3 =  0.2424413
:DTO004: DIFFERENCE IN SPHERE  4 =  0.1526742

:DIS  :  CHARGE DISTANCE       ( 0.3807915 for atom    2 spin 1)      0.2322218
 
******************************************************
* MULTISECANT MIXING VER9 RELEASE 9.4.1              *
* Slow Mode, cautious                                *
* Fixed density scale                                *
* Regularization       1.000E-04                     *
* Step Trust Radius    0.75000                       *
* Trust Upper Limit    2.000E+00                     *
* Max Number of Memory Steps   12                    *
******************************************************
 
:PWTMP   1.0803E+03  1.1250E+03  1.6426E+03
:PLANE:  PW TOTAL      6.9933 DISTAN   2.78E+00  3.97E+01 %
:CHARG:  CLM/ATOM    474.7646 DISTAN   2.41E-01  5.07E-02 %
 
Step History
        DMIX         DMIXT        Red     Pred      Trust     Lambda    MagRel    MagAbs     Beta
  1   3.5000E-02   3.5000E-02 -1.00E+00  1.00E+00 -1.00E+01  1.00E+00  3.50E-02  3.50E-02  1.00E+00
  2   2.5000E-02   2.5000E-02 -1.00E+00  1.00E+00 -1.00E+01  1.00E+00  2.50E-02  8.13E-02  1.00E+00
:JACOBIANS    1.330E-02   2.345E-02
  
:TRUST:  Step 5.44E-02  Charge 5.00E-02 (e) CTO  2.65E-01 (e) PW  3.71E-01 (e)
:DIRM :  MEMORY  1/12 SCALE   1.000
:MIX  :   PRATT  REGULARIZATION:  1.00E-04 GREED: 0.05442  Expand 2.18  0.0544 PW             
     
       CHARGES OF MIXED CHARGE DENSITY
:CTO   : INTERSTITIAL CHARGE =    17.498874
:CPC   : INTERSTITIAL CHARGE =    45.271322
:CTO001: CHARGE SPHERE  1    =    52.331838
:CTO002: CHARGE SPHERE  2    =    21.966948
:CTO003: CHARGE SPHERE  3    =    48.745518
:CTO004: CHARGE SPHERE  4    =    48.630732

:NEC03: NUCLEAR AND ELECTRONIC CHARGE    379.00000   379.00000

PW CHANGE     H    K    L      Current       Change    Residue
:PTO001:      0    0    0  3.82143927E-02 -3.326E-04 -7.943E-03
:PTO002:      0    0   -1 -1.21054812E-02  5.939E-05  1.914E-03
:PTO003:     -1    0    0 -1.37257317E-03  3.644E-05  4.548E-04
:PTO004:      0    0   -2 -5.89300970E-04  1.781E-04  3.771E-03
:PTO005:     -1    0   -1  3.36416532E-02  1.264E-04  1.980E-03
:PTO006:     -1    0   -2  9.88859387E-02 -1.319E-03 -3.235E-02
:PTO007:      0    0   -3 -6.13834706E-04  3.007E-05  7.252E-04
:PTO008:     -2    1    0  5.32850476E-02 -8.236E-04 -2.044E-02
:PTO009:     -2    1   -1  1.33552573E-02  6.084E-06  2.752E-04
:PTO010:     -1    0   -3  1.14977044E-02  1.669E-05  6.815E-04
:PTO011:     -2    0    0  1.16027877E-02 -2.309E-04 -6.230E-03
:PTO012:     -2    1   -2 -2.10420679E-02  7.701E-04  1.952E-02

:ENE  : ********** TOTAL ENERGY IN Ry =       -86113.21066932

       TOTAL FORCE IN mRy/a.u. = |F|     Fx             Fy             Fz     with/without FOR in case.in2
:FOR001:   1.ATOM          0.000          0.000          0.000          0.000 partial forces
:FOR002:   2.ATOM          0.000          0.000          0.000          0.000 partial forces
:FOR003:   3.ATOM          0.000          0.000          0.000          0.000 partial forces
:FOR004:   4.ATOM        146.554          0.000          0.000        146.554 partial forces
       TOTAL FORCE WITH RESPECT TO GLOBAL CARTESIAN COORDINATES:
:FCA001:   1.ATOM                         0.000          0.000          0.000 partial forces
:FCA002:   2.ATOM                         0.000          0.000          0.000 partial forces
:FCA003:   3.ATOM                         0.000          0.000          0.000 partial forces
:FCA004:   4.ATOM                         0.000          0.000        146.554 partial forces
       TOTAL FORCE WITH RESPECT TO THE GLOBAL COORDINATE SYSTEM:
:FGL001:   1.ATOM                 0.000000000     0.000000000     0.000000000 partial forces
:FGL002:   2.ATOM                 0.000000000     0.000000000     0.000000000 partial forces
:FGL003:   3.ATOM                 0.000000000     0.000000000     0.000000000 partial forces
:FGL004:   4.ATOM                 0.000000000     0.000000000   146.553926768 partial forces
 Flat Integration
 New Mode for Coulomb Integral
 Consistent 3/8+Simpson combinations
 Extension of core to zero
 LDM version in phi
 Fifth-order quadrature in outwin


            ---------
:ITE003:  3. ITERATION
            ---------

:NATO :    4 INDEPENDENT AND    9 TOTAL ATOMS IN UNITCELL
       SUBSTANCE: CsV3Sb5_nm_no_relaxation                                    

       LATTICE                      = H   
:POT  : POTENTIAL OPTION EX_PBE EC_PBE VX_PBE VC_PBE
:LAT  : LATTICE CONSTANTS= 10.38386 10.38386 17.59052
:VOL  : UNIT CELL VOLUME =    1642.57998
       MODE OF CALCULATION IS       = RELA
       NON-SPINPOLARIZED CALCULATION
:IFFT  : FFT-parameters:   80   80  144 Factor: 2.00
       ATOMNUMBER=  1 Cs1        VCOUL-ZERO =  0.21816E+00
:EFG001:                        EFG         =     0.11582   *10**21  V / m**2
                               V20  TOT/SRF=     0.10030    -0.01003
                               V22  TOT/SRF=     0.00000     0.00000
                               V22M TOT/SRF=     0.00000     0.00000
                               V21  TOT/SRF=     0.00000     0.00000
                               V21M TOT/SRF=     0.00000     0.00000

             -0.05791    0.00000    0.00000       -0.05791    0.00000    0.00000
              0.00000   -0.05791    0.00000        0.00000   -0.05791    0.00000
              0.00000    0.00000    0.11582        0.00000    0.00000    0.11582

         MAIN DIRECTIONS OF THE EFG   1.0000  0.0000  0.0000
                                      0.0000  1.0000  0.0000
                                      0.0000  0.0000  1.0000
:ANG001:  ANGLE WITH OLD X-AXIS =         0.0

:ETA001:                         ASYMM. ETA =     0.00000


       ATOMNUMBER=  2 V 1        VCOUL-ZERO =  0.28954E+00
:EFG002:                        EFG         =    -0.38691   *10**21  V / m**2
                               V20  TOT/SRF=     0.11888    -0.06116
                               V22  TOT/SRF=     0.31827    -0.08002
                               V22M TOT/SRF=     0.00000     0.00000
                               V21  TOT/SRF=     0.00000     0.00000
                               V21M TOT/SRF=     0.00000     0.00000

              0.24964    0.00000    0.00000        0.24964    0.00000    0.00000
              0.00000   -0.38691    0.00000        0.00000   -0.38691    0.00000
              0.00000    0.00000    0.13727        0.00000    0.00000    0.13727

         MAIN DIRECTIONS OF THE EFG   1.0000  0.0000  0.0000
                                      0.0000  1.0000  0.0000
                                      0.0000  0.0000  1.0000
:ANG002:  ANGLE WITH OLD X-AXIS =         0.0

:ETA002:                         ASYMM. ETA =     0.29042


       ATOMNUMBER=  3 Sb1        VCOUL-ZERO =  0.23634E+00
:EFG003:                        EFG         =     3.83631   *10**21  V / m**2
                               V20  TOT/SRF=     3.32234    -0.21697
                               V22  TOT/SRF=     0.00000     0.00000
                               V22M TOT/SRF=     0.00000     0.00000
                               V21  TOT/SRF=     0.00000     0.00000
                               V21M TOT/SRF=     0.00000     0.00000

             -1.91816    0.00000    0.00000       -1.91816    0.00000    0.00000
              0.00000   -1.91816    0.00000        0.00000   -1.91816    0.00000
              0.00000    0.00000    3.83631        0.00000    0.00000    3.83631

         MAIN DIRECTIONS OF THE EFG   1.0000  0.0000  0.0000
                                      0.0000  1.0000  0.0000
                                      0.0000  0.0000  1.0000
:ANG003:  ANGLE WITH OLD X-AXIS =         0.0

:ETA003:                         ASYMM. ETA =     0.00000


       ATOMNUMBER=  4 Sb2        VCOUL-ZERO =  0.24504E+00
:EFG004:                        EFG         =    -1.96563   *10**21  V / m**2
                               V20  TOT/SRF=    -1.70229     0.07975
                               V22  TOT/SRF=     0.00000     0.00000
                               V22M TOT/SRF=     0.00000     0.00000
                               V21  TOT/SRF=     0.00000     0.00000
                               V21M TOT/SRF=     0.00000     0.00000

              0.98282    0.00000    0.00000        0.98282    0.00000    0.00000
              0.00000    0.98282    0.00000        0.00000    0.98282    0.00000
              0.00000    0.00000   -1.96563        0.00000    0.00000   -1.96563

         MAIN DIRECTIONS OF THE EFG   1.0000  0.0000  0.0000
                                      0.0000  1.0000  0.0000
                                      0.0000  0.0000  1.0000
:ANG004:  ANGLE WITH OLD X-AXIS =         0.0

:ETA004:                         ASYMM. ETA =     0.00000


     HELLMANN-FEYNMAN-FORCE IN mRy/a.u. = |F|  Fx       Fy             Fz
:FHF001:   1.ATOM      0.000000000000      0.000000000000      0.000000000000      0.000000000000

     HELLMANN-FEYNMAN-FORCE IN mRy/a.u. = |F|  Fx       Fy             Fz
:FHF002:   2.ATOM      0.000000000000      0.000000000000      0.000000000000      0.000000000000

     HELLMANN-FEYNMAN-FORCE IN mRy/a.u. = |F|  Fx       Fy             Fz
:FHF003:   3.ATOM      0.000000000000      0.000000000000      0.000000000000      0.000000000000

     HELLMANN-FEYNMAN-FORCE IN mRy/a.u. = |F|  Fx       Fy             Fz
:FHF004:   4.ATOM     10.638903889483      0.000000000000      0.000000000000     10.638903889483

:FIT001: LUSE= 13 SIGMA OF V-XC FIT FOR ATOM  1  0.9010508E-05
:FIT001: LUSE= 13 SIGMA OF V-XC FIT FOR ATOM  1  0.9010508E-05
:FIT002: LUSE= 13 SIGMA OF V-XC FIT FOR ATOM  2  0.3134942E-02
:FIT002: LUSE= 13 SIGMA OF V-XC FIT FOR ATOM  2  0.3134942E-02
:FIT003: LUSE= 13 SIGMA OF V-XC FIT FOR ATOM  3  0.2068841E-03
:FIT003: LUSE= 13 SIGMA OF V-XC FIT FOR ATOM  3  0.2068841E-03
:FIT004: LUSE= 13 SIGMA OF V-XC FIT FOR ATOM  4  0.4137624E-03
:FIT004: LUSE= 13 SIGMA OF V-XC FIT FOR ATOM  4  0.4137624E-03
:DEN  : DENSITY INTEGRAL  =        -33983.01799915   (Ry)
       ELS_POTENTIAL_AT Z=0 and Z=0.5:  -0.12128  -1.16596
       ELS_POTENTIAL_AT Y=0 and Y=0.5:   0.00000   0.00000
:VZERO:v0,v0c,v0x  -0.67968  -0.12128  -0.55840 v5,v5c,v5x  -2.05286  -1.16596  -0.88690
:VZERY:v0,v0c,v0x  -0.67867   0.00000  -0.67867 v5,v5c,v5x  -0.67867   0.00000  -0.67867
:VZERX:v0,v0c,v0x  -1.48877  -0.81215  -0.67662 v5,v5c,v5x  -0.96941  -0.18010  -0.78931
:LMAX-WF:   10   Non-Spherical LMAX:   4

          ATOMIC SPHERE DEPENDENT PARAMETERS FOR ATOM  Cs1       
:e__0001: OVERALL ENERGY PARAMETER IS    0.2402
          OVERALL BASIS SET ON ATOM IS LAPW
:E2_0001: E( 2)=    0.2402
             APW+lo
:E2_0001: E( 2)=   -4.5880   E(BOTTOM)=   -4.600   E(TOP)=   -4.576  1  2   151
             LOCAL ORBITAL
:E0_0001: E( 0)=    0.6402
             APW+lo
:E0_0001: E( 0)=   -1.0972   E(BOTTOM)=   -1.780   E(TOP)=   -0.414  4  5   170
             LOCAL ORBITAL
:E1_0001: E( 1)=    0.6402
             APW+lo
:E1_0001: E( 1)=   -0.6600   E(BOTTOM)=   -0.897   E(TOP)= -200.000  3 -1   144
             LOCAL ORBITAL

          ATOMIC SPHERE DEPENDENT PARAMETERS FOR ATOM  V 1       
:e__0002: OVERALL ENERGY PARAMETER IS    0.2402
          OVERALL BASIS SET ON ATOM IS LAPW
:E0_0002: E( 0)=    0.2402
             APW+lo
:E0_0002: E( 0)=   -4.2384   E(BOTTOM)=   -4.271   E(TOP)=   -4.206  2  3   166
             LOCAL ORBITAL
:E1_0002: E( 1)=    0.2402
             APW+lo
:E1_0002: E( 1)=   -2.3351   E(BOTTOM)=   -2.417   E(TOP)=   -2.254  1  2   159
             LOCAL ORBITAL
:E2_0002: E( 2)=    0.4759   E(BOTTOM)=    0.145   E(TOP)=    0.806  0  1   131
             APW+lo

          ATOMIC SPHERE DEPENDENT PARAMETERS FOR ATOM  Sb1       
:e__0003: OVERALL ENERGY PARAMETER IS    0.2402
          OVERALL BASIS SET ON ATOM IS LAPW
:E2_0003: E( 2)=    0.2402
             APW+lo
:E2_0003: E( 2)=   -1.6177   E(BOTTOM)=   -1.723   E(TOP)=   -1.512  1  2   151
             LOCAL ORBITAL
:E0_0003: E( 0)=    0.6402
             APW+lo
:E0_0003: E( 0)=   -0.6900   E(BOTTOM)=   -0.960   E(TOP)= -200.000  4 -1   152
             LOCAL ORBITAL
:E1_0003: E( 1)=    0.2402
             APW+lo

          ATOMIC SPHERE DEPENDENT PARAMETERS FOR ATOM  Sb2       
:e__0004: OVERALL ENERGY PARAMETER IS    0.2402
          OVERALL BASIS SET ON ATOM IS LAPW
:E2_0004: E( 2)=    0.2402
             APW+lo
:E2_0004: E( 2)=   -1.6361   E(BOTTOM)=   -1.740   E(TOP)=   -1.532  1  2   144
             LOCAL ORBITAL
:E0_0004: E( 0)=    0.6402
             APW+lo
:E0_0004: E( 0)=   -0.6900   E(BOTTOM)=   -0.959   E(TOP)= -200.000  4 -1   151
             LOCAL ORBITAL
:E1_0004: E( 1)=    0.2402
             APW+lo

        MPI-parallel calculation using     4 processors
        Scalapack processors array (row,col):   2   2

       K=   0.00000   0.00000   0.00000            1
:RKM  : MATRIX SIZE   797LOs: 132  RKM= 6.96  WEIGHT= 1.00  PGR:    
       EIGENVALUES ARE:
:EIG00001:      -4.5856333   -4.5856333   -4.5852495   -4.5852495   -4.5850778
:EIG00006:      -4.2354495   -4.2301037   -4.2301037   -2.3453568   -2.3272168
:EIG00011:      -2.3272168   -2.3187910   -2.3133373   -2.3133373   -2.3065335
:EIG00016:      -2.3046831   -2.3046831   -1.6165708   -1.6163781   -1.6147138
:EIG00021:      -1.6147138   -1.6133939   -1.6133939   -1.6123186   -1.6122681
:EIG00026:      -1.6122681   -1.6122455   -1.6122455   -1.6114790   -1.6110482
:EIG00031:      -1.6110482   -1.6110060   -1.6110060   -1.6073635   -1.6073635
:EIG00036:      -1.6067384   -1.6067384   -1.6004417   -1.6004417   -1.5888090
:EIG00041:      -1.5888090   -1.5886554   -1.1048751   -0.3774036   -0.3089668
:EIG00046:      -0.2078018   -0.1413824   -0.1413824   -0.1304633   -0.0881244
 
:EIG00051:      -0.0623416    0.1055365    0.1891365    0.1891365    0.2543436
:EIG00056:       0.2543436    0.2737610    0.2737610    0.2860580    0.3210488
:EIG00061:       0.3229560    0.3229560    0.3244838    0.3400472    0.3400472
:EIG00066:       0.3744200    0.4829404    0.5355579    0.5355579    0.5496373
:EIG00071:       0.5496373    0.5533051    0.5808078    0.5808078    0.5877309
:EIG00076:       0.6080723    0.6080723    0.6135664    0.6135664    0.6659057
:EIG00081:       0.6672018    0.7943824    0.7943824    0.8114507    0.8339991
:EIG00086:       0.8809639    0.9399143    0.9399143    0.9722406    0.9722406
:EIG00091:       1.0007826    1.0007826    1.0273160    1.0691089    1.1320570
:EIG00096:       1.1320570    1.1951212    1.1951212    1.2107337    1.2498436
 
:EIG00101:       1.2498436    1.2834524    1.3132004    1.3466420    1.3577724
:EIG00106:       1.3749076    1.3749076    1.3802272    1.3802272    1.4158652
:EIG00111:       1.4366070    1.4366070    1.4873164    1.4984116    1.5021449
:EIG00116:       1.5021449    1.5032149    1.5032149    1.5210971    1.5210971
:EIG00121:       1.5362095    1.5362095    1.5518141    1.5528923    1.5564632
:EIG00126:       1.6349369    1.6543933    1.6543933    1.6711682    1.7010407
:EIG00131:       1.7010407    1.7313279    1.7356900    1.7496336    1.7496336
       ********************************************************

:KPT   :      NUMBER OF K-POINTS:  13552
:GAP (global)   :    0.0    Ry =     0.0   eV (metal)
         Bandranges (emin - emax) and occupancy:
:BAN00058:  58    0.249532    0.294476  2.00000000
:BAN00059:  59    0.261229    0.300579  2.00000000
:BAN00060:  60    0.278659    0.359236  2.00000000
:BAN00061:  61    0.319498    0.381716  2.00000000
:BAN00062:  62    0.322956    0.391085  2.00000000
:BAN00063:  63    0.324478    0.397873  2.00000000
:BAN00064:  64    0.336826    0.418243  2.00000000
:BAN00065:  65    0.340007    0.436567  2.00000000
:BAN00066:  66    0.365568    0.480457  2.00000000
:BAN00067:  67    0.441624    0.526353  0.86013328
:BAN00068:  68    0.477023    0.535847  0.13986669
:BAN00069:  69    0.489633    0.546693  0.00000000
:BAN00070:  70    0.530372    0.552228  0.00000000
:BAN00071:  71    0.539130    0.559993  0.00000000
:BAN00072:  72    0.547488    0.571129  0.00000000
:BAN00073:  73    0.553165    0.587787  0.00000000
        Energy to separate low and high energystates:    0.04871


:NOE  : NUMBER OF ELECTRONS          = 133.000

:FER  : F E R M I - ENERGY(TETRAH.M.)=   0.4816970912
:GMA  : POTENTIAL AND CHARGE CUT-OFF  12.00 Ry**.5
 
 
 
 
:POS001: ATOM   -1 X,Y,Z = 0.00000 0.00000 0.00000  MULT= 1  ZZ= 55.000  Cs1
 
       LMMAX  5
       LM=   0 0  2 0  4 0  6 0  6 6
 
:CHA001: TOTAL VALENCE CHARGE INSIDE SPHERE   1 =  16.2728    (RMT=  2.5000 )
:PCS001: PARTIAL CHARGES SPHERE =  1 S,P,D,F,PZ,PXY, D-Z2,D-XY,X2Y2,D-XZ,YZ
:QTL001: 1.7984 4.453610.0178 0.0026 1.4829 2.9708 0.0000 2.0007 4.0073 4.0099 0.0000 0.0000
        Q-s-low E-s-low   Q-p-low E-p-low   Q-d-low E-d-low   Q-f-low E-f-low
:EPL001:  1.7849 -1.1036    4.3021 -0.1446    9.9956 -4.5849    0.0001 -0.3463
        Q-s-hi  E-s-hi    Q-p-hi  E-p-hi    Q-d-hi  E-d-hi    Q-f-hi  E-f-hi
:EPH001:  0.0136  0.2687    0.1517  0.2344    0.0223  0.2973    0.0024  0.3221
:VZZ001: EFG INSIDE SPHERE   1 =     0.714833      UP TO R =   2.50000
 
 
 
 
:POS002: ATOM   -2 X,Y,Z = 0.50000 0.50000 0.50000  MULT= 3  ZZ= 23.000  V 1
 
       LMMAX 10
       LM=   0 0  2 0  2 2  4 0  4 2  4 4  6 0  6 2  6 4  6 6
 
:CHA002: TOTAL VALENCE CHARGE INSIDE SPHERE   2 =  12.1319    (RMT=  2.5000 )
:PCS002: PARTIAL CHARGES SPHERE =  2 S,P,D,F,PX,PY,PZ,D-Z2,D-X2Y2,D-XY,D-XZ,D-YZ
:QTL002: 2.3321 6.4040 3.3571 0.0321 2.1211 2.1680 2.1151 0.7373 0.5569 0.9202 0.5354 0.6072
        Q-s-low E-s-low   Q-p-low E-p-low   Q-d-low E-d-low   Q-f-low E-f-low
:EPL002:  2.0899 -4.0563    6.0434 -2.2880    0.0952 -0.2379    0.0058 -0.5939
        Q-s-hi  E-s-hi    Q-p-hi  E-p-hi    Q-d-hi  E-d-hi    Q-f-hi  E-f-hi
:EPH002:  0.2423  0.1689    0.3607  0.2805    3.2619  0.3377    0.0265  0.3314
 
                      VXX         VYY         VZZ       UP TO R
:VZZ002:             3.27865    -8.23022     4.95156       2.500
 
 
 
 
:POS003: ATOM   -3 X,Y,Z = 0.00000 0.00000 0.50000  MULT= 1  ZZ= 51.000  Sb1
 
       LMMAX  5
       LM=   0 0  2 0  4 0  6 0  6 6
 
:CHA003: TOTAL VALENCE CHARGE INSIDE SPHERE   3 =  12.4418    (RMT=  2.4300 )
:PCS003: PARTIAL CHARGES SPHERE =  3 S,P,D,F,PZ,PXY, D-Z2,D-XY,X2Y2,D-XZ,YZ
:QTL003: 1.1508 1.2890 9.9763 0.0223 0.2714 1.0176 0.0000 1.9846 4.0052 3.9864 0.0000 0.0000
        Q-s-low E-s-low   Q-p-low E-p-low   Q-d-low E-d-low   Q-f-low E-f-low
:EPL003:  1.0969 -0.2315    0.0166 -0.3917    9.9010 -1.5926    0.0008 -1.3255
        Q-s-hi  E-s-hi    Q-p-hi  E-p-hi    Q-d-hi  E-d-hi    Q-f-hi  E-f-hi
:EPH003:  0.0538  0.2242    1.2725  0.2293    0.0751  0.3480    0.0215  0.3256
:VZZ003: EFG INSIDE SPHERE   3 =    56.053275      UP TO R =   2.43000
 
 
 
 
:POS004: ATOM   -4 X,Y,Z = 0.66667 0.33333 0.74217  MULT= 4  ZZ= 51.000  Sb2
 
       LMMAX 12
       LM=   0 0  1 0  2 0  3 0  3 3  4 0  4 3  5 0  5 3  6 0  6 3  6 6
 
:CHA004: TOTAL VALENCE CHARGE INSIDE SPHERE   4 =  12.5380    (RMT=  2.4300 )
:PCS004: PARTIAL CHARGES SPHERE =  4 S,P,D,F,PZ,PXY, D-Z2,D-XY,X2Y2,D-XZ,YZ
:QTL004: 1.2466 1.3172 9.9582 0.0141 0.5380 0.7792 0.0000 1.9968 3.9815 3.9800 0.0000 0.0000
        Q-s-low E-s-low   Q-p-low E-p-low   Q-d-low E-d-low   Q-f-low E-f-low
:EPL004:  1.0910 -0.2157    0.0485 -0.2291    9.9052 -1.6109    0.0011 -0.7544
        Q-s-hi  E-s-hi    Q-p-hi  E-p-hi    Q-d-hi  E-d-hi    Q-f-hi  E-f-hi
:EPH004:  0.1556  0.2854    1.2686  0.2849    0.0529  0.3051    0.0128  0.3478
:VZZ004: EFG INSIDE SPHERE   4 =   -36.751390      UP TO R =   2.43000
 
:CHA  : TOTAL VALENCE CHARGE INSIDE UNIT CELL =     132.999999
 
:SUM  : SUM OF EIGENVALUES =        -189.578218160
 

        1.ATOM      Cs1                  12 CORE STATES
:1S 001: 1S               -2628.324756836 Ry
:2S 001: 2S                -411.397059198 Ry
:2PP001: 2P*               -386.960030635 Ry
:2P 001: 2P                -361.068198826 Ry
:3S 001: 3S                 -84.845772102 Ry
:3PP001: 3P*                -74.642418956 Ry
:3P 001: 3P                 -69.680502033 Ry
:3DD001: 3D*                -51.761351397 Ry
:3D 001: 3D                 -50.708003709 Ry
:4S 001: 4S                 -15.310477076 Ry
:4PP001: 4P*                -11.649609216 Ry
:4P 001: 4P                 -10.637640308 Ry

        2.ATOM      V 1                   4 CORE STATES
:1S 002: 1S                -393.241857062 Ry
:2S 002: 2S                 -43.303243732 Ry
:2PP002: 2P*                -36.339198240 Ry
:2P 002: 2P                 -35.817494443 Ry

        3.ATOM      Sb1                  12 CORE STATES
:1S 003: 1S               -2225.030746549 Ry
:2S 003: 2S                -337.728395850 Ry
:2PP003: 2P*               -315.889555832 Ry
:2P 003: 2P                -297.381297342 Ry
:3S 003: 3S                 -65.505517709 Ry
:3PP003: 3P*                -56.581583334 Ry
:3P 003: 3P                 -53.166463095 Ry
:3DD003: 3D*                -37.415075841 Ry
:3D 003: 3D                 -36.705384070 Ry
:4S 003: 4S                 -10.053832901 Ry
:4PP003: 4P*                 -7.038329906 Ry
:4P 003: 4P                  -6.408178798 Ry

        4.ATOM      Sb2                  12 CORE STATES
       CORE-FORCE in mRy/a.u. = |F|      Fx             Fy             Fz
:FCO004:   4.ATOM     83.025213644146      0.000000000000      0.000000000000    -83.025213644146

:1S 004: 1S               -2225.054809541 Ry
:2S 004: 2S                -337.752645873 Ry
:2PP004: 2P*               -315.913779137 Ry
:2P 004: 2P                -297.405529273 Ry
:3S 004: 3S                 -65.529777438 Ry
:3PP004: 3P*                -56.605846336 Ry
:3P 004: 3P                 -53.190708415 Ry
:3DD004: 3D*                -37.439345256 Ry
:3D 004: 3D                 -36.729649526 Ry
:4S 004: 4S                 -10.075862276 Ry
:4PP004: 4P*                 -7.059903289 Ry
:4P 004: 4P                  -6.429453320 Ry
:CINT001 Core Integral Atom   1   35.999909
:CINT002 Core Integral Atom   2   10.000000
:CINT003 Core Integral Atom   3   35.997989
:CINT004 Core Integral Atom   4   35.998022

       DENSITY AT NUCLEUS
        JATOM        VALENCE       SEMI-CORE          CORE           TOTAL
:RTO001:   1      321.668334        0.000000   438171.212595   438492.880929
:RTO002:   2      116.430180        0.000000     9866.115593     9982.545773
:RTO003:   3      114.148693        0.000000   290609.066554   290723.215247
:RTO004:   4      127.676278        0.000000   290609.411459   290737.087736
     
       CHARGES OF NEW CHARGE DENSITY
:NTO   : INTERSTITIAL CHARGE =    17.738252
:NPC   : INTERSTITIAL CHARGE =    33.920189
:NTO001: CHARGE SPHERE  1    =    52.272682
:NTO002: CHARGE SPHERE  2    =    22.131782
:NTO003: CHARGE SPHERE  3    =    48.439713
:NTO004: CHARGE SPHERE  4    =    48.535987

:NEC01: NUCLEAR AND ELECTRONIC CHARGE    379.00000   378.98994
     
       CHARGES OF OLD CHARGE DENSITY
:OTO   : INTERSTITIAL CHARGE =    17.498874
:OPC   : INTERSTITIAL CHARGE =    45.271322
:OTO001: CHARGE SPHERE  1    =    52.331838
:OTO002: CHARGE SPHERE  2    =    21.966948
:OTO003: CHARGE SPHERE  3    =    48.745518
:OTO004: CHARGE SPHERE  4    =    48.630732

:NEC02: NUCLEAR AND ELECTRONIC CHARGE    379.00000   379.00000
     
       CONVERGENCE TEST
:DTO001: DIFFERENCE IN SPHERE  1 =  0.0763263
:DTO002: DIFFERENCE IN SPHERE  2 =  0.2349415
:DTO003: DIFFERENCE IN SPHERE  3 =  0.1787052
:DTO004: DIFFERENCE IN SPHERE  4 =  0.0743968

:DIS  :  CHARGE DISTANCE       ( 0.2349415 for atom    2 spin 1)      0.1397159
 
******************************************************
* MULTISECANT MIXING VER9 RELEASE 9.4.1              *
* Standard Mode with controls                        *
* Fixed density scale                                *
* Regularization       1.000E-04                     *
* Trust Upper Limit    5.000E+00                     *
* Max Number of Memory Steps    8                    *
******************************************************
 
:PWTMP   1.0803E+03  1.1250E+03  1.6426E+03
:PLANE:  PW TOTAL      6.9012 DISTAN   2.58E+00  3.74E+01 %
:CHARG:  CLM/ATOM    474.7629 DISTAN   1.87E-01  3.94E-02 %
 
Step History
        DMIX         DMIXT        Red     Pred      Trust     Lambda    MagRel    MagAbs     Beta
  1   3.5000E-02   3.5000E-02 -1.00E+00  1.00E+00 -1.00E+01  1.00E+00  3.50E-02  3.50E-02  1.00E+00
  2   2.5000E-02   2.5000E-02  9.05E-01  1.00E+00 -1.00E+01  1.00E+00  2.50E-02  8.13E-02  1.00E+00
  3   5.4416E-02   5.4416E-02 -1.00E+00  1.00E+00 -1.00E+01  1.00E+00  5.44E-02  1.60E-01  1.00E+00
:JACOBIANS    4.197E-02   4.444E-02
  
:NORMS:  1/Froebius, Min, Max, Used   0.1369E+00  0.7450E-01  0.1490E+00  0.1369E+00
:INFO :  Number of Memory Steps    2 Skipping    0
:INFO :  SLambda=    1.0792153  Max    1.0792153

Eigenvalues, unscaled except for SY+YY
   #     SY Real        SY Imag          SS             YY         SY+YY Real      SY+YY Imag
   1  -2.636780E-16   0.000000E+00   3.749365E-02   1.999676E+00   3.468907E-04   0.000000E+00
   2   1.576586E-01   0.000000E+00  -6.938894E-17   3.242628E-04   2.169801E+00   0.000000E+00
 
:INFO :  Singular value  2.170E+00 Weight  1.000E+00 Projection  4.587E-01
:INFO :  Singular value  3.469E-04 Weight  7.506E-01 Projection -6.139E+01
:RANK :  ACTIVE   1.75/2  =  87.53 %
 
Increasing PW by   1.250
:BLIM :  VZERO Control Off
:TRUST:  Step 1.30E-01  Charge 3.50E-02 (e) CTO  2.65E-01 (e) PW  4.64E-01 (e)
:DTRUS:  Lambda    3.804E+01 Increment    7.276E-12 Iterations   146 DMIX    3.524E-02
:INFOA:  Angle SubSpace to MSR1      6.55
:DIRM :  MEMORY  2/8  SCALE   1.000 RED  0.91 PRED  1.00 NEXT  0.94 
:TRAVE:  Charge 1.28E-02 (e) CTO  1.24E-02 (e) PW  4.64E-01 (e)
:DIRP :  |MSR1|= 1.542E-01 |PRATT|= 2.584E+00 ANGLE=   7.8 DEGREES
:DIRQ :  |MSR1|= 3.148E-02 |PRATT|= 7.474E-01 ANGLE=  54.9 DEGREES
:DIRT :  |MSR1|= 1.573E-01 |PRATT|= 2.689E+00 ANGLE=  15.3 DEGREES
:MIX  :   MSE1   REGULARIZATION:  2.00E-04 GREED: 0.07355  LMStep 0.35  0.0585 PW             
     
       CHARGES OF MIXED CHARGE DENSITY
:CTO   : INTERSTITIAL CHARGE =    17.511294
:CPC   : INTERSTITIAL CHARGE =    44.553310
:CTO001: CHARGE SPHERE  1    =    52.330158
:CTO002: CHARGE SPHERE  2    =    21.979703
:CTO003: CHARGE SPHERE  3    =    48.741128
:CTO004: CHARGE SPHERE  4    =    48.619578

:NEC03: NUCLEAR AND ELECTRONIC CHARGE    379.00000   379.00000

PW CHANGE     H    K    L      Current       Change    Residue
:PTO001:      0    0    0  3.77848296E-02 -4.296E-04 -6.747E-03
:PTO002:      0    0   -1 -1.19160346E-02  1.894E-04  2.452E-03
:PTO003:     -1    0    0 -1.13823911E-03  2.343E-04  5.216E-05
:PTO004:      0    0   -2 -4.42344750E-04  1.470E-04  2.433E-03
:PTO005:     -1    0   -1  3.34578239E-02 -1.838E-04 -1.915E-04
:PTO006:     -1    0   -2  9.71557385E-02 -1.730E-03 -2.870E-02
:PTO007:      0    0   -3 -5.29813262E-04  8.402E-05  6.830E-04
:PTO008:     -2    1    0  5.21517417E-02 -1.133E-03 -1.852E-02
:PTO009:     -2    1   -1  1.32454849E-02 -1.098E-04  2.629E-04
:PTO010:     -1    0   -3  1.15166513E-02  1.895E-05  9.658E-04
:PTO011:     -2    0    0  1.12768561E-02 -3.259E-04 -6.314E-03
:PTO012:     -2    1   -2 -1.98558602E-02  1.186E-03  1.839E-02

:ENE  : ********** TOTAL ENERGY IN Ry =       -86113.07643423

       TOTAL FORCE IN mRy/a.u. = |F|     Fx             Fy             Fz     with/without FOR in case.in2
:FOR001:   1.ATOM          0.000          0.000          0.000          0.000 partial forces
:FOR002:   2.ATOM          0.000          0.000          0.000          0.000 partial forces
:FOR003:   3.ATOM          0.000          0.000          0.000          0.000 partial forces
:FOR004:   4.ATOM         72.386          0.000          0.000        -72.386 partial forces
       TOTAL FORCE WITH RESPECT TO GLOBAL CARTESIAN COORDINATES:
:FCA001:   1.ATOM                         0.000          0.000          0.000 partial forces
:FCA002:   2.ATOM                         0.000          0.000          0.000 partial forces
:FCA003:   3.ATOM                         0.000          0.000          0.000 partial forces
:FCA004:   4.ATOM                         0.000          0.000        -72.386 partial forces
       TOTAL FORCE WITH RESPECT TO THE GLOBAL COORDINATE SYSTEM:
:FGL001:   1.ATOM                 0.000000000     0.000000000     0.000000000 partial forces
:FGL002:   2.ATOM                 0.000000000     0.000000000     0.000000000 partial forces
:FGL003:   3.ATOM                 0.000000000     0.000000000     0.000000000 partial forces
:FGL004:   4.ATOM                 0.000000000     0.000000000   -72.386309755 partial forces
 Flat Integration
 New Mode for Coulomb Integral
 Consistent 3/8+Simpson combinations
 Extension of core to zero
 LDM version in phi
 Fifth-order quadrature in outwin


            ---------
:ITE004:  4. ITERATION
            ---------

:NATO :    4 INDEPENDENT AND    9 TOTAL ATOMS IN UNITCELL
       SUBSTANCE: CsV3Sb5_nm_no_relaxation                                    

       LATTICE                      = H   
:POT  : POTENTIAL OPTION EX_PBE EC_PBE VX_PBE VC_PBE
:LAT  : LATTICE CONSTANTS= 10.38386 10.38386 17.59052
:VOL  : UNIT CELL VOLUME =    1642.57998
       MODE OF CALCULATION IS       = RELA
       NON-SPINPOLARIZED CALCULATION
:IFFT  : FFT-parameters:   80   80  144 Factor: 2.00
       ATOMNUMBER=  1 Cs1        VCOUL-ZERO =  0.20737E+00
:EFG001:                        EFG         =     0.12966   *10**21  V / m**2
                               V20  TOT/SRF=     0.11229    -0.01069
                               V22  TOT/SRF=     0.00000     0.00000
                               V22M TOT/SRF=     0.00000     0.00000
                               V21  TOT/SRF=     0.00000     0.00000
                               V21M TOT/SRF=     0.00000     0.00000

             -0.06483    0.00000    0.00000       -0.06483    0.00000    0.00000
              0.00000   -0.06483    0.00000        0.00000   -0.06483    0.00000
              0.00000    0.00000    0.12966        0.00000    0.00000    0.12966

         MAIN DIRECTIONS OF THE EFG   1.0000  0.0000  0.0000
                                      0.0000  1.0000  0.0000
                                      0.0000  0.0000  1.0000
:ANG001:  ANGLE WITH OLD X-AXIS =         0.0

:ETA001:                         ASYMM. ETA =     0.00000


       ATOMNUMBER=  2 V 1        VCOUL-ZERO =  0.30557E+00
:EFG002:                        EFG         =    -0.49671   *10**21  V / m**2
                               V20  TOT/SRF=     0.38590    -0.04434
                               V22  TOT/SRF=     0.27391    -0.07316
                               V22M TOT/SRF=     0.00000     0.00000
                               V21  TOT/SRF=     0.00000     0.00000
                               V21M TOT/SRF=     0.00000     0.00000

              0.05111    0.00000    0.00000        0.05111    0.00000    0.00000
              0.00000   -0.49671    0.00000        0.00000   -0.49671    0.00000
              0.00000    0.00000    0.44560        0.00000    0.00000    0.44560

         MAIN DIRECTIONS OF THE EFG   1.0000  0.0000  0.0000
                                      0.0000  1.0000  0.0000
                                      0.0000  0.0000  1.0000
:ANG002:  ANGLE WITH OLD X-AXIS =         0.0

:ETA002:                         ASYMM. ETA =     0.79421


       ATOMNUMBER=  3 Sb1        VCOUL-ZERO =  0.24714E+00
:EFG003:                        EFG         =     3.25494   *10**21  V / m**2
                               V20  TOT/SRF=     2.81886    -0.20194
                               V22  TOT/SRF=     0.00000     0.00000
                               V22M TOT/SRF=     0.00000     0.00000
                               V21  TOT/SRF=     0.00000     0.00000
                               V21M TOT/SRF=     0.00000     0.00000

             -1.62747    0.00000    0.00000       -1.62747    0.00000    0.00000
              0.00000   -1.62747    0.00000        0.00000   -1.62747    0.00000
              0.00000    0.00000    3.25494        0.00000    0.00000    3.25494

         MAIN DIRECTIONS OF THE EFG   1.0000  0.0000  0.0000
                                      0.0000  1.0000  0.0000
                                      0.0000  0.0000  1.0000
:ANG003:  ANGLE WITH OLD X-AXIS =         0.0

:ETA003:                         ASYMM. ETA =     0.00000


       ATOMNUMBER=  4 Sb2        VCOUL-ZERO =  0.24042E+00
:EFG004:                        EFG         =    -2.51348   *10**21  V / m**2
                               V20  TOT/SRF=    -2.17674     0.07120
                               V22  TOT/SRF=     0.00000     0.00000
                               V22M TOT/SRF=     0.00000     0.00000
                               V21  TOT/SRF=     0.00000     0.00000
                               V21M TOT/SRF=     0.00000     0.00000

              1.25674    0.00000    0.00000        1.25674    0.00000    0.00000
              0.00000    1.25674    0.00000        0.00000    1.25674    0.00000
              0.00000    0.00000   -2.51348        0.00000    0.00000   -2.51348

         MAIN DIRECTIONS OF THE EFG   1.0000  0.0000  0.0000
                                      0.0000  1.0000  0.0000
                                      0.0000  0.0000  1.0000
:ANG004:  ANGLE WITH OLD X-AXIS =         0.0

:ETA004:                         ASYMM. ETA =     0.00000


     HELLMANN-FEYNMAN-FORCE IN mRy/a.u. = |F|  Fx       Fy             Fz
:FHF001:   1.ATOM      0.000000000000      0.000000000000      0.000000000000      0.000000000000

     HELLMANN-FEYNMAN-FORCE IN mRy/a.u. = |F|  Fx       Fy             Fz
:FHF002:   2.ATOM      0.000000000000      0.000000000000      0.000000000000      0.000000000000

     HELLMANN-FEYNMAN-FORCE IN mRy/a.u. = |F|  Fx       Fy             Fz
:FHF003:   3.ATOM      0.000000000000      0.000000000000      0.000000000000      0.000000000000

     HELLMANN-FEYNMAN-FORCE IN mRy/a.u. = |F|  Fx       Fy             Fz
:FHF004:   4.ATOM    321.749429688356      0.000000000000      0.000000000000   -321.749429688356

:FIT001: LUSE= 13 SIGMA OF V-XC FIT FOR ATOM  1  0.9842174E-05
:FIT001: LUSE= 13 SIGMA OF V-XC FIT FOR ATOM  1  0.9842174E-05
:FIT002: LUSE= 13 SIGMA OF V-XC FIT FOR ATOM  2  0.3155280E-02
:FIT002: LUSE= 13 SIGMA OF V-XC FIT FOR ATOM  2  0.3155280E-02
:FIT003: LUSE= 13 SIGMA OF V-XC FIT FOR ATOM  3  0.1910195E-03
:FIT003: LUSE= 13 SIGMA OF V-XC FIT FOR ATOM  3  0.1910195E-03
:FIT004: LUSE= 13 SIGMA OF V-XC FIT FOR ATOM  4  0.4026249E-03
:FIT004: LUSE= 13 SIGMA OF V-XC FIT FOR ATOM  4  0.4026249E-03
:DEN  : DENSITY INTEGRAL  =        -33981.75996277   (Ry)
       ELS_POTENTIAL_AT Z=0 and Z=0.5:  -0.13003  -1.13759
       ELS_POTENTIAL_AT Y=0 and Y=0.5:   0.00000   0.00000
:VZERO:v0,v0c,v0x  -0.68764  -0.13003  -0.55761 v5,v5c,v5x  -2.02176  -1.13759  -0.88417
:VZERY:v0,v0c,v0x  -0.67757   0.00000  -0.67757 v5,v5c,v5x  -0.67757   0.00000  -0.67757
:VZERX:v0,v0c,v0x  -1.48328  -0.80959  -0.67369 v5,v5c,v5x  -0.96468  -0.17735  -0.78734
:LMAX-WF:   10   Non-Spherical LMAX:   4

          ATOMIC SPHERE DEPENDENT PARAMETERS FOR ATOM  Cs1       
:e__0001: OVERALL ENERGY PARAMETER IS    0.2679
          OVERALL BASIS SET ON ATOM IS LAPW
:E2_0001: E( 2)=    0.2679
             APW+lo
:E2_0001: E( 2)=   -4.6001   E(BOTTOM)=   -4.612   E(TOP)=   -4.588  1  2   150
             LOCAL ORBITAL
:E0_0001: E( 0)=    0.6679
             APW+lo
:E0_0001: E( 0)=   -1.1086   E(BOTTOM)=   -1.792   E(TOP)=   -0.425  4  5   169
             LOCAL ORBITAL
:E1_0001: E( 1)=    0.6679
             APW+lo
:E1_0001: E( 1)=   -0.6600   E(BOTTOM)=   -0.908   E(TOP)= -200.000  3 -1   148
             LOCAL ORBITAL

          ATOMIC SPHERE DEPENDENT PARAMETERS FOR ATOM  V 1       
:e__0002: OVERALL ENERGY PARAMETER IS    0.2679
          OVERALL BASIS SET ON ATOM IS LAPW
:E0_0002: E( 0)=    0.2679
             APW+lo
:E0_0002: E( 0)=   -4.2173   E(BOTTOM)=   -4.250   E(TOP)=   -4.185  2  3   158
             LOCAL ORBITAL
:E1_0002: E( 1)=    0.2679
             APW+lo
:E1_0002: E( 1)=   -2.3144   E(BOTTOM)=   -2.396   E(TOP)=   -2.233  1  2   156
             LOCAL ORBITAL
:E2_0002: E( 2)=    0.4958   E(BOTTOM)=    0.164   E(TOP)=    0.827  0  1   136
             APW+lo

          ATOMIC SPHERE DEPENDENT PARAMETERS FOR ATOM  Sb1       
:e__0003: OVERALL ENERGY PARAMETER IS    0.2679
          OVERALL BASIS SET ON ATOM IS LAPW
:E2_0003: E( 2)=    0.2679
             APW+lo
:E2_0003: E( 2)=   -1.6111   E(BOTTOM)=   -1.716   E(TOP)=   -1.506  1  2   154
             LOCAL ORBITAL
:E0_0003: E( 0)=    0.6679
             APW+lo
:E0_0003: E( 0)=   -0.6900   E(BOTTOM)=   -0.951   E(TOP)= -200.000  4 -1   153
             LOCAL ORBITAL
:E1_0003: E( 1)=    0.2679
             APW+lo

          ATOMIC SPHERE DEPENDENT PARAMETERS FOR ATOM  Sb2       
:e__0004: OVERALL ENERGY PARAMETER IS    0.2679
          OVERALL BASIS SET ON ATOM IS LAPW
:E2_0004: E( 2)=    0.2679
             APW+lo
:E2_0004: E( 2)=   -1.6456   E(BOTTOM)=   -1.749   E(TOP)=   -1.542  1  2   146
             LOCAL ORBITAL
:E0_0004: E( 0)=    0.6679
             APW+lo
:E0_0004: E( 0)=   -0.6900   E(BOTTOM)=   -0.965   E(TOP)= -200.000  4 -1   148
             LOCAL ORBITAL
:E1_0004: E( 1)=    0.2679
             APW+lo

[...]
       ELS_POTENTIAL_AT Z=0 and Z=0.5:  -0.14902  -1.00391
       ELS_POTENTIAL_AT Y=0 and Y=0.5:   0.00000   0.00000
:VZERO:v0,v0c,v0x  -0.67520  -0.14902  -0.52618 v5,v5c,v5x  -1.81578  -1.00391  -0.81187
:VZERY:v0,v0c,v0x  -0.65436   0.00000  -0.65436 v5,v5c,v5x  -0.65436   0.00000  -0.65436
:VZERX:v0,v0c,v0x  -1.44562  -0.84558  -0.60004 v5,v5c,v5x  -0.86844  -0.11114  -0.75729
:LMAX-WF:   10   Non-Spherical LMAX:   4

          ATOMIC SPHERE DEPENDENT PARAMETERS FOR ATOM  Cs1       
:e__0001: OVERALL ENERGY PARAMETER IS    0.2719
          OVERALL BASIS SET ON ATOM IS LAPW
:E2_0001: E( 2)=    0.2719
             APW+lo
:E2_0001: E( 2)=   -4.6771   E(BOTTOM)=   -4.689   E(TOP)=   -4.665  1  2   136
             LOCAL ORBITAL
:E0_0001: E( 0)=    0.6719
             APW+lo
:E0_0001: E( 0)=   -1.1818   E(BOTTOM)=   -1.864   E(TOP)=   -0.499  4  5   169
             LOCAL ORBITAL
:E1_0001: E( 1)=    0.6719
             APW+lo
:E1_0001: E( 1)=   -0.0088   E(BOTTOM)=   -0.981   E(TOP)=    0.963  3  4   202
             LOCAL ORBITAL

          ATOMIC SPHERE DEPENDENT PARAMETERS FOR ATOM  V 1       
:e__0002: OVERALL ENERGY PARAMETER IS    0.2719
          OVERALL BASIS SET ON ATOM IS LAPW
:E0_0002: E( 0)=    0.2719
             APW+lo
:E0_0002: E( 0)=   -4.2694   E(BOTTOM)=   -4.300   E(TOP)=   -4.239  2  3   168
             LOCAL ORBITAL
:E1_0002: E( 1)=    0.2719
             APW+lo
:E1_0002: E( 1)=   -2.3585   E(BOTTOM)=   -2.435   E(TOP)=   -2.282  1  2   155
             LOCAL ORBITAL
:E2_0002: E( 2)=    0.4711   E(BOTTOM)=    0.159   E(TOP)=    0.784  0  1   130
             APW+lo

          ATOMIC SPHERE DEPENDENT PARAMETERS FOR ATOM  Sb1       
:e__0003: OVERALL ENERGY PARAMETER IS    0.2719
          OVERALL BASIS SET ON ATOM IS LAPW
:E2_0003: E( 2)=    0.2719
             APW+lo
:E2_0003: E( 2)=   -1.6965   E(BOTTOM)=   -1.799   E(TOP)=   -1.594  1  2   138
             LOCAL ORBITAL
:E0_0003: E( 0)=    0.6719
             APW+lo
:E0_0003: E( 0)=   -0.6900   E(BOTTOM)=   -1.001   E(TOP)= -200.000  4 -1   152
             LOCAL ORBITAL
:E1_0003: E( 1)=    0.2719
             APW+lo

          ATOMIC SPHERE DEPENDENT PARAMETERS FOR ATOM  Sb2       
:e__0004: OVERALL ENERGY PARAMETER IS    0.2719
          OVERALL BASIS SET ON ATOM IS LAPW
:E2_0004: E( 2)=    0.2719
             APW+lo
:E2_0004: E( 2)=   -1.6740   E(BOTTOM)=   -1.777   E(TOP)=   -1.571  1  2   140
             LOCAL ORBITAL
:E0_0004: E( 0)=    0.6719
             APW+lo
:E0_0004: E( 0)=   -0.6900   E(BOTTOM)=   -0.978   E(TOP)= -200.000  4 -1   153
             LOCAL ORBITAL
:E1_0004: E( 1)=    0.2719
             APW+lo

        MPI-parallel calculation using     4 processors
        Scalapack processors array (row,col):   2   2

       K=   0.00000   0.00000   0.00000            1
:RKM  : MATRIX SIZE   797LOs: 132  RKM= 6.96  WEIGHT= 1.00  PGR:    
       EIGENVALUES ARE:
:EIG00001:      -4.6748075   -4.6745828   -4.6745828   -4.6741192   -4.6741192
:EIG00006:      -4.2665538   -4.2616526   -4.2616526   -2.3540413   -2.3537240
:EIG00011:      -2.3508959   -2.3508959   -2.3491263   -2.3491263   -2.3342444
:EIG00016:      -2.3189596   -2.3189596   -1.6792128   -1.6740808   -1.6740808
:EIG00021:      -1.6681677   -1.6681677   -1.6574669   -1.6574669   -1.6573536
:EIG00026:      -1.6573536   -1.6537089   -1.6537089   -1.6530952   -1.6530952
:EIG00031:      -1.6487977   -1.6487977   -1.6475773   -1.6475773   -1.6467902
:EIG00036:      -1.6465853   -1.6465853   -1.6465134   -1.6464965   -1.6464965
:EIG00041:      -1.6423862   -1.6415569   -1.1885006   -0.3898425   -0.3357164
:EIG00046:      -0.2337547   -0.2195695   -0.2195695   -0.2082531   -0.0935262
 
:EIG00051:      -0.0719014    0.1257036    0.1759612    0.1759612    0.2472046
:EIG00056:       0.2472046    0.2487607    0.2487607    0.2664668    0.3127010
:EIG00061:       0.3127010    0.3184339    0.3289923    0.3493686    0.3493686
:EIG00066:       0.3863056    0.4422043    0.5292926    0.5292926    0.5348040
:EIG00071:       0.5392844    0.5392844    0.5609408    0.5609408    0.5649714
:EIG00076:       0.5758755    0.5758755    0.5768784    0.5768784    0.6313970
:EIG00081:       0.6581946    0.7624033    0.7624033    0.7881464    0.7956823
:EIG00086:       0.8944081    0.9168896    0.9168896    0.9217809    0.9217809
:EIG00091:       0.9863327    0.9865758    0.9865758    1.0314135    1.1128654
:EIG00096:       1.1128654    1.1583248    1.1583248    1.1857438    1.2167141
 
:EIG00101:       1.2167141    1.2739155    1.2842470    1.3120842    1.3205339
:EIG00106:       1.3379350    1.3379350    1.3451439    1.3451439    1.3902703
:EIG00111:       1.4233772    1.4233772    1.4378909    1.4500115    1.4500115
:EIG00116:       1.4600645    1.4726408    1.4726408    1.4874131    1.4874131
:EIG00121:       1.4963321    1.4963321    1.5110377    1.5334171    1.5724675
:EIG00126:       1.6075585    1.6079573    1.6079573    1.6229565    1.6783736
:EIG00131:       1.6783736    1.6869899    1.7011996    1.7123834    1.7123834
       ********************************************************

:KPT   :      NUMBER OF K-POINTS:  13552
:GAP (global)   :    0.0    Ry =     0.0   eV (metal)
         Bandranges (emin - emax) and occupancy:
:BAN00058:  58    0.246818    0.288702  2.00000000
:BAN00059:  59    0.246818    0.299152  2.00000000
:BAN00060:  60    0.275541    0.370039  2.00000000
:BAN00061:  61    0.304644    0.374994  2.00000000
:BAN00062:  62    0.313694    0.379718  2.00000000
:BAN00063:  63    0.328972    0.390712  2.00000000
:BAN00064:  64    0.343099    0.419654  2.00000000
:BAN00065:  65    0.349283    0.430494  2.00000000
:BAN00066:  66    0.366509    0.466846  2.00000000
:BAN00067:  67    0.413493    0.505049  0.97929316
:BAN00068:  68    0.465666    0.532046  0.02070681
:BAN00069:  69    0.476233    0.532046  0.00000000
:BAN00070:  70    0.513177    0.534804  0.00000000
:BAN00071:  71    0.523182    0.541185  0.00000000
:BAN00072:  72    0.531185    0.562624  0.00000000
:BAN00073:  73    0.538500    0.564629  0.00000000
        Energy to separate low and high energystates:    0.04921


:NOE  : NUMBER OF ELECTRONS          = 133.000

:FER  : F E R M I - ENERGY(TETRAH.M.)=   0.4718280452
:GMA  : POTENTIAL AND CHARGE CUT-OFF  12.00 Ry**.5
 
 
 
 
:POS001: ATOM   -1 X,Y,Z = 0.00000 0.00000 0.00000  MULT= 1  ZZ= 55.000  Cs1
 
       LMMAX  5
       LM=   0 0  2 0  4 0  6 0  6 6
 
:CHA001: TOTAL VALENCE CHARGE INSIDE SPHERE   1 =  16.3254    (RMT=  2.5000 )
:PCS001: PARTIAL CHARGES SPHERE =  1 S,P,D,F,PZ,PXY, D-Z2,D-XY,X2Y2,D-XZ,YZ
:QTL001: 1.8028 4.492310.0268 0.0033 1.4944 2.9979 0.0000 2.0016 4.0106 4.0145 0.0000 0.0000
        Q-s-low E-s-low   Q-p-low E-p-low   Q-d-low E-d-low   Q-f-low E-f-low
:EPL001:  1.7873 -1.1871    4.3666 -0.2237    9.9958 -4.6738    0.0004 -0.3582
        Q-s-hi  E-s-hi    Q-p-hi  E-p-hi    Q-d-hi  E-d-hi    Q-f-hi  E-f-hi
:EPH001:  0.0153  0.2570    0.1256  0.2322    0.0308  0.2886    0.0030  0.3135
:VZZ001: EFG INSIDE SPHERE   1 =     2.407747      UP TO R =   2.50000
 
 
 
 
:POS002: ATOM   -2 X,Y,Z = 0.50000 0.50000 0.50000  MULT= 3  ZZ= 23.000  V 1
 
       LMMAX 10
       LM=   0 0  2 0  2 2  4 0  4 2  4 4  6 0  6 2  6 4  6 6
 
:CHA002: TOTAL VALENCE CHARGE INSIDE SPHERE   2 =  11.9297    (RMT=  2.5000 )
:PCS002: PARTIAL CHARGES SPHERE =  2 S,P,D,F,PX,PY,PZ,D-Z2,D-X2Y2,D-XY,D-XZ,D-YZ
:QTL002: 2.3111 6.3641 3.2203 0.0288 2.1103 2.1466 2.1072 0.7118 0.5034 0.8943 0.5505 0.5603
        Q-s-low E-s-low   Q-p-low E-p-low   Q-d-low E-d-low   Q-f-low E-f-low
:EPL002:  2.0732 -4.1178    6.0332 -2.3170    0.0805 -0.2621    0.0052 -0.6076
        Q-s-hi  E-s-hi    Q-p-hi  E-p-hi    Q-d-hi  E-d-hi    Q-f-hi  E-f-hi
:EPH002:  0.2379  0.1775    0.3308  0.2811    3.1397  0.3396    0.0235  0.3248
 
                      VXX         VYY         VZZ       UP TO R
:VZZ002:             2.07551    -6.07963     4.00412       2.500
 
 
 
 
:POS003: ATOM   -3 X,Y,Z = 0.00000 0.00000 0.50000  MULT= 1  ZZ= 51.000  Sb1
 
       LMMAX  5
       LM=   0 0  2 0  4 0  6 0  6 6
 
:CHA003: TOTAL VALENCE CHARGE INSIDE SPHERE   3 =  12.6135    (RMT=  2.4300 )
:PCS003: PARTIAL CHARGES SPHERE =  3 S,P,D,F,PZ,PXY, D-Z2,D-XY,X2Y2,D-XZ,YZ
:QTL003: 1.1840 1.4285 9.9785 0.0196 0.3793 1.0493 0.0000 1.9843 4.0048 3.9893 0.0000 0.0000
        Q-s-low E-s-low   Q-p-low E-p-low   Q-d-low E-d-low   Q-f-low E-f-low
:EPL003:  1.1321 -0.2587    0.0148 -0.4154    9.9051 -1.6721    0.0008 -1.3905
        Q-s-hi  E-s-hi    Q-p-hi  E-p-hi    Q-d-hi  E-d-hi    Q-f-hi  E-f-hi
:EPH003:  0.0519  0.2140    1.4137  0.2315    0.0733  0.3469    0.0189  0.3376
:VZZ003: EFG INSIDE SPHERE   3 =    33.499000      UP TO R =   2.43000
 
 
 
 
:POS004: ATOM   -4 X,Y,Z = 0.66667 0.33333 0.74217  MULT= 4  ZZ= 51.000  Sb2
 
       LMMAX 12
       LM=   0 0  1 0  2 0  3 0  3 3  4 0  4 3  5 0  5 3  6 0  6 3  6 6
 
:CHA004: TOTAL VALENCE CHARGE INSIDE SPHERE   4 =  12.5834    (RMT=  2.4300 )
:PCS004: PARTIAL CHARGES SPHERE =  4 S,P,D,F,PZ,PXY, D-Z2,D-XY,X2Y2,D-XZ,YZ
:QTL004: 1.2495 1.3635 9.9558 0.0128 0.5476 0.8157 0.0000 1.9954 3.9827 3.9779 0.0000 0.0000
        Q-s-low E-s-low   Q-p-low E-p-low   Q-d-low E-d-low   Q-f-low E-f-low
:EPL004:  1.1166 -0.2294    0.0423 -0.2499    9.9071 -1.6493    0.0011 -0.7583
        Q-s-hi  E-s-hi    Q-p-hi  E-p-hi    Q-d-hi  E-d-hi    Q-f-hi  E-f-hi
:EPH004:  0.1327  0.2851    1.3209  0.2736    0.0489  0.3035    0.0118  0.3494
:VZZ004: EFG INSIDE SPHERE   4 =   -34.862893      UP TO R =   2.43000
 
:CHA  : TOTAL VALENCE CHARGE INSIDE UNIT CELL =     133.000001
 
:SUM  : SUM OF EIGENVALUES =        -194.384535947
 

        1.ATOM      Cs1                  12 CORE STATES
:1S 001: 1S               -2628.440861625 Ry
:2S 001: 2S                -411.503641894 Ry
:2PP001: 2P*               -387.068421589 Ry
:2P 001: 2P                -361.175988186 Ry
:3S 001: 3S                 -84.941902448 Ry
:3PP001: 3P*                -74.738984057 Ry
:3P 001: 3P                 -69.776678570 Ry
:3DD001: 3D*                -51.858421264 Ry
:3D 001: 3D                 -50.804923505 Ry
:4S 001: 4S                 -15.400543446 Ry
:4PP001: 4P*                -11.739524233 Ry
:4P 001: 4P                 -10.727355090 Ry

        2.ATOM      V 1                   4 CORE STATES
:1S 002: 1S                -393.340630458 Ry
:2S 002: 2S                 -43.403203897 Ry
:2PP002: 2P*                -36.439770063 Ry
:2P 002: 2P                 -35.917976988 Ry

        3.ATOM      Sb1                  12 CORE STATES
:1S 003: 1S               -2225.129083538 Ry
:2S 003: 2S                -337.824177847 Ry
:2PP003: 2P*               -315.985829176 Ry
:2P 003: 2P                -297.477428890 Ry
:3S 003: 3S                 -65.598057444 Ry
:3PP003: 3P*                -56.674234933 Ry
:3P 003: 3P                 -53.258987646 Ry
:3DD003: 3D*                -37.507875180 Ry
:3D 003: 3D                 -36.798138318 Ry
:4S 003: 4S                 -10.141155244 Ry
:4PP003: 4P*                 -7.124552038 Ry
:4P 003: 4P                  -6.493704332 Ry

        4.ATOM      Sb2                  12 CORE STATES
       CORE-FORCE in mRy/a.u. = |F|      Fx             Fy             Fz
:FCO004:   4.ATOM    556.731016634182      0.000000000000      0.000000000000   -556.731016634182

:1S 004: 1S               -2225.106764569 Ry
:2S 004: 2S                -337.802593533 Ry
:2PP004: 2P*               -315.964249074 Ry
:2P 004: 2P                -297.455859975 Ry
:3S 004: 3S                 -65.576077082 Ry
:3PP004: 3P*                -56.652269020 Ry
:3P 004: 3P                 -53.237011734 Ry
:3DD004: 3D*                -37.485974864 Ry
:3D 004: 3D                 -36.776232475 Ry
:4S 004: 4S                 -10.118572381 Ry
:4PP004: 4P*                 -7.101956744 Ry
:4P 004: 4P                  -6.471088022 Ry
:CINT001 Core Integral Atom   1   35.999909
:CINT002 Core Integral Atom   2   10.000000
:CINT003 Core Integral Atom   3   35.998047
:CINT004 Core Integral Atom   4   35.998052

       DENSITY AT NUCLEUS
        JATOM        VALENCE       SEMI-CORE          CORE           TOTAL
:RTO001:   1      323.148688        0.000000   438173.490938   438496.639625
:RTO002:   2      117.076016        0.000000     9866.332004     9983.408020
:RTO003:   3      119.124979        0.000000   290610.344970   290729.469949
:RTO004:   4      128.276380        0.000000   290610.329230   290738.605610
     
       CHARGES OF NEW CHARGE DENSITY
:NTO   : INTERSTITIAL CHARGE =    17.938324
:NPC   : INTERSTITIAL CHARGE =    33.755297
:NTO001: CHARGE SPHERE  1    =    52.325176
:NTO002: CHARGE SPHERE  2    =    21.929807
:NTO003: CHARGE SPHERE  3    =    48.611554
:NTO004: CHARGE SPHERE  4    =    48.581411

:NEC01: NUCLEAR AND ELECTRONIC CHARGE    379.00000   378.99012
     
       CHARGES OF OLD CHARGE DENSITY
:OTO   : INTERSTITIAL CHARGE =    17.948282
:OPC   : INTERSTITIAL CHARGE =    33.773929
:OTO001: CHARGE SPHERE  1    =    52.325181
:OTO002: CHARGE SPHERE  2    =    21.929737
:OTO003: CHARGE SPHERE  3    =    48.611554
:OTO004: CHARGE SPHERE  4    =    48.581443

:NEC02: NUCLEAR AND ELECTRONIC CHARGE    379.00000   379.00000
     
       CONVERGENCE TEST
:DTO001: DIFFERENCE IN SPHERE  1 =  0.0000230
:DTO002: DIFFERENCE IN SPHERE  2 =  0.0000524
:DTO003: DIFFERENCE IN SPHERE  3 =  0.0000359
:DTO004: DIFFERENCE IN SPHERE  4 =  0.0000167

:DIS  :  CHARGE DISTANCE       ( 0.0000524 for atom    2 spin 1)      0.0000314
 
******************************************************
* MULTISECANT MIXING VER9 RELEASE 9.4.1              *
* Standard Mode with controls                        *
* Fixed density scale                                *
* Regularization       1.000E-04                     *
* Trust Upper Limit    5.000E+00                     *
* Max Number of Memory Steps    8                    *
******************************************************
 
:PWTMP   1.0803E+03  1.1250E+03  1.6426E+03
:PLANE:  PW TOTAL      5.0392 DISTAN   4.38E-05  8.69E-04 %
:CHARG:  CLM/ATOM    474.7483 DISTAN   2.85E-05  6.01E-06 %
 
Step History
        DMIX         DMIXT        Red     Pred      Trust     Lambda    MagRel    MagAbs     Beta
  9   2.7659E-01   1.9132E-01  5.65E-01  5.44E-01  6.30E-01  1.01E+00  4.03E-01  5.76E-01  9.80E-01
 10   1.5558E-01   1.5558E-01  1.32E-01  1.53E-01  1.33E+00  1.22E+00  9.60E-01  7.76E-01  1.00E+00
 11   1.2434E-01   1.2434E-01  5.11E-01  5.59E-01  2.13E+00  1.28E+00  3.08E-01  3.29E-02  9.83E-01
 12   2.6975E-01   2.6975E-01  2.67E-01  5.01E-01  2.58E+00  7.14E-01  4.80E-01  2.62E-02  1.00E+00
 13   2.7527E-01   2.7527E-01  7.24E-01  5.50E-01  2.99E+00  1.07E+00  6.82E-01  9.94E-03  1.00E+00
 14   3.9331E-01   3.9331E-01  7.81E-01  1.99E-01  2.66E+00  1.57E+00  4.08E-01  4.30E-03  1.00E+00
 15   2.4751E-01   2.4751E-01  1.07E-01  1.46E-01  2.55E+00  1.56E+00  1.03E-01  8.48E-04  1.00E+00
 16   3.9645E-01   3.9645E-01  6.16E-01  3.87E-01  4.92E+00  1.60E+00  6.44E-01  5.70E-04  1.00E+00
 17   3.3323E-01   3.3323E-01 -1.00E+00  2.21E-01  4.83E+00  1.00E+00  2.88E-01  1.57E-04  1.00E+00
:JACOBIANS    1.427E+00   3.050E+00
  
:NORMS:  1/Froebius, Min, Max, Used   0.6418E+00  0.6072E+00  0.1007E+01  0.6418E+00
:INFO :  Number of Memory Steps    8 Skipping    8
:INFO :  SLambda=    1.6468197  Max    1.6468197

Eigenvalues, unscaled except for SY+YY
   #     SY Real        SY Imag          SS             YY         SY+YY Real      SY+YY Imag
   1   1.790901E+00   0.000000E+00   1.575568E+00   4.157763E+00   6.223126E+00   0.000000E+00
   2   9.422449E-01   0.000000E+00   9.177185E-01   1.565770E+00   2.801843E+00   0.000000E+00
   3   6.714614E-01   0.000000E+00   5.918162E-01   9.990760E-01   2.553068E+00   0.000000E+00
   4   2.422357E-01   1.120702E-02   1.358901E-01   8.210129E-01   1.964524E+00   0.000000E+00
   5   2.422357E-01  -1.120702E-02   6.654748E-02   4.007336E-01   7.919432E-01   0.000000E+00
   6   2.755298E-02   0.000000E+00   6.508799E-03   4.744487E-02   1.073242E-01   0.000000E+00
   7   3.261774E-04   0.000000E+00   1.493759E-03   7.500212E-03   1.246661E-03   0.000000E+00
   8   2.893662E-03   0.000000E+00   1.457655E-04   6.996890E-04   1.221308E-02   0.000000E+00
 
:INFO :  Singular value  6.281E+00 Weight  1.000E+00 Projection  3.520E-05
:INFO :  Singular value  2.791E+00 Weight  1.000E+00 Projection -3.401E-05
:INFO :  Singular value  2.551E+00 Weight  1.000E+00 Projection -5.936E-06
:INFO :  Singular value  1.956E+00 Weight  1.000E+00 Projection -1.495E-05
:INFO :  Singular value  7.920E-01 Weight  1.000E+00 Projection  1.171E-05
:INFO :  Singular value  1.073E-01 Weight  1.000E+00 Projection -1.264E-05
:INFO :  Singular value  1.221E-02 Weight  9.988E-01 Projection  3.677E-04
:INFO :  Singular value  1.247E-03 Weight  8.999E-01 Projection  1.168E-03
:RANK :  ACTIVE   7.90/8  =  98.73 %
 
:BLIM :  VZERO Control Off
:TRUST:  Step 9.19E+00  Charge 1.11E-02 (e) CTO  4.72E-02 (e) PW  4.36E-01 (e)
:DIRM :  MEMORY  8/8  SCALE   1.000 RED  0.22 PRED  0.22 NEXT  0.58 BETA  1.00
:TRAVE:  Charge 2.90E-04 (e) CTO  6.26E-04 (e) PW  6.55E-03 (e)
:DIRP :  |MSR1|= 2.265E-05 |PRATT|= 4.381E-05 ANGLE=  36.1 DEGREES
:DIRQ :  |MSR1|= 4.393E-05 |PRATT|= 1.141E-04 ANGLE=  40.8 DEGREES
:DIRT :  |MSR1|= 4.942E-05 |PRATT|= 1.223E-04 ANGLE=  40.4 DEGREES
:MIX  :   MSE1   REGULARIZATION:  4.16E-04 GREED: 0.35444  Newton 1.00  0.4043                
     
       CHARGES OF MIXED CHARGE DENSITY
:CTO   : INTERSTITIAL CHARGE =    17.948279
:CPC   : INTERSTITIAL CHARGE =    33.773972
:CTO001: CHARGE SPHERE  1    =    52.325180
:CTO002: CHARGE SPHERE  2    =    21.929750
:CTO003: CHARGE SPHERE  3    =    48.611560
:CTO004: CHARGE SPHERE  4    =    48.581433

:NEC03: NUCLEAR AND ELECTRONIC CHARGE    379.00000   379.00000

PW CHANGE     H    K    L      Current       Change    Residue
:PTO001:      0    0    0  3.14884213E-02  2.349E-08 -7.431E-08
:PTO002:      0    0   -1 -8.70691401E-03 -9.750E-08 -2.000E-07
:PTO003:     -1    0    0  5.64351914E-04  1.084E-07  2.041E-07
:PTO004:      0    0   -2  7.77436716E-04  1.185E-07  3.003E-07
:PTO005:     -1    0   -1  3.03106150E-02  3.259E-08  2.443E-07
:PTO006:     -1    0   -2  7.22102183E-02  9.265E-08 -1.933E-07
:PTO007:      0    0   -3  4.34195367E-04 -2.747E-08 -7.789E-09
:PTO008:     -2    1    0  3.49082503E-02 -2.739E-08 -2.287E-07
:PTO009:     -2    1   -1  1.34506928E-02 -5.549E-08 -9.275E-09
:PTO010:     -1    0   -3  1.23789526E-02 -5.200E-08 -1.302E-07
:PTO011:     -2    0    0  5.95890279E-03  8.579E-08  1.388E-07
:PTO012:     -2    1   -2 -2.42351404E-03  1.020E-07  2.689E-07

:ENE  : ********** TOTAL ENERGY IN Ry =       -86112.96413829

       TOTAL FORCE IN mRy/a.u. = |F|     Fx             Fy             Fz     with/without FOR in case.in2
:FOR001:   1.ATOM          0.000          0.000          0.000          0.000 partial forces
:FOR002:   2.ATOM          0.000          0.000          0.000          0.000 partial forces
:FOR003:   3.ATOM          0.000          0.000          0.000          0.000 partial forces
:FOR004:   4.ATOM         43.178          0.000          0.000        -43.178 partial forces
       TOTAL FORCE WITH RESPECT TO GLOBAL CARTESIAN COORDINATES:
:FCA001:   1.ATOM                         0.000          0.000          0.000 partial forces
:FCA002:   2.ATOM                         0.000          0.000          0.000 partial forces
:FCA003:   3.ATOM                         0.000          0.000          0.000 partial forces
:FCA004:   4.ATOM                         0.000          0.000        -43.178 partial forces
       TOTAL FORCE WITH RESPECT TO THE GLOBAL COORDINATE SYSTEM:
:FGL001:   1.ATOM                 0.000000000     0.000000000     0.000000000 partial forces
:FGL002:   2.ATOM                 0.000000000     0.000000000     0.000000000 partial forces
:FGL003:   3.ATOM                 0.000000000     0.000000000     0.000000000 partial forces
:FGL004:   4.ATOM                 0.000000000     0.000000000   -43.177986965 partial forces
